REMARK SMILES Cc1cccc(-c2nc(Nc3ccc4[nH]ncc4c3)c3ccccc3n2)n1
REMARK SMILES IDX 8 1 26 2 20 3 9 4 25 5 7 6 21 7 24 8 22 9 23 10 10 11 11 13
REMARK SMILES IDX 19 14 12 15 18 16 13 17 14 18 17 19 15 20 16 21 6 23 27 24
REMARK SMILES IDX 5 25 2 26 4 27 3 28 1 29
REMARK H PARENT 10 12 15 22
ROOT
ATOM      1  N   UNL     1       0.717  -0.016  -0.379  1.00  0.00    -0.209 NA
ATOM      2  N   UNL     1       3.022   0.282   0.256  1.00  0.00    -0.226 NA
ATOM      3  C   UNL     1       1.625   2.203  -0.072  1.00  0.00     0.043 A 
ATOM      4  C   UNL     1       0.589   1.324  -0.378  1.00  0.00     0.142 A 
ATOM      5  C   UNL     1       2.860   1.617   0.248  1.00  0.00     0.077 A 
ATOM      6  C   UNL     1       1.942  -0.462  -0.058  1.00  0.00     0.180 A 
ATOM      7  C   UNL     1       1.467   3.600  -0.078  1.00  0.00     0.014 A 
ATOM      8  C   UNL     1       3.921   2.464   0.559  1.00  0.00     0.029 A 
ATOM      9  C   UNL     1       2.543   4.423   0.237  1.00  0.00     0.001 A 
ATOM     10  C   UNL     1       3.772   3.854   0.556  1.00  0.00     0.002 A 
ENDROOT
BRANCH   4  11
ATOM     11  N   UNL     1      -0.687   1.843  -0.710  1.00  0.00    -0.340 N 
ATOM     12  H   UNL     1      -0.654   2.766  -1.166  1.00  0.00     0.168 HD
BRANCH  11  13
ATOM     13  C   UNL     1      -1.987   1.342  -0.539  1.00  0.00     0.040 A 
ATOM     14  C   UNL     1      -2.270   0.493   0.544  1.00  0.00     0.038 A 
ATOM     15  C   UNL     1      -2.995   1.688  -1.448  1.00  0.00     0.028 A 
ATOM     16  C   UNL     1      -3.577   0.001   0.697  1.00  0.00     0.022 A 
ATOM     17  C   UNL     1      -4.301   1.207  -1.309  1.00  0.00     0.030 A 
ATOM     18  C   UNL     1      -4.554   0.365  -0.223  1.00  0.00     0.065 A 
ATOM     19  C   UNL     1      -4.251  -0.840   1.608  1.00  0.00     0.143 A 
ATOM     20  N   UNL     1      -5.695  -0.264   0.194  1.00  0.00    -0.278 N 
ATOM     21  N   UNL     1      -5.541  -1.004   1.305  1.00  0.00    -0.183 NA
ATOM     22  H   UNL     1      -6.595  -0.178  -0.300  1.00  0.00     0.190 HD
ENDBRANCH  11  13
ENDBRANCH   4  11
BRANCH   6  23
ATOM     23  C   UNL     1       2.123  -1.890  -0.047  1.00  0.00     0.108 A 
ATOM     24  N   UNL     1       1.023  -2.611  -0.364  1.00  0.00    -0.250 NA
ATOM     25  C   UNL     1       3.350  -2.455   0.271  1.00  0.00     0.032 A 
ATOM     26  C   UNL     1       1.161  -3.956  -0.362  1.00  0.00     0.038 A 
ATOM     27  C   UNL     1       3.453  -3.841   0.263  1.00  0.00     0.004 A 
ATOM     28  C   UNL     1       2.342  -4.614  -0.059  1.00  0.00     0.023 A 
ATOM     29  C   UNL     1      -0.051  -4.753  -0.711  1.00  0.00     0.067 C 
ENDBRANCH   6  23
TORSDOF 3
