REMARK SMILES C[C@]12CC[C@H](OC(=O)CCCc3ccc(N(CCCl)CCCl)cc3)C[C@@H]1CC[C@H]1[C@H]3CCC(=O)N[C@@]3(C)CC[C@@H]12
REMARK SMILES IDX 11 1 12 2 15 3 14 4 23 5 13 6 24 7 16 8 17 9 18 10 19 11
REMARK SMILES IDX 20 12 21 13 22 14 10 15 9 16 7 17 8 18 6 19 5 20 25 21 4 22
REMARK SMILES IDX 26 23 3 24 2 25 27 26 40 27 28 28 29 29 39 30 30 31 38 32
REMARK SMILES IDX 36 33 31 34 35 35 32 36 33 37 34 38 1 39 37 40
REMARK H PARENT 35 41
ROOT
ATOM      1  C   UNL     1       4.449  -2.962  -1.583  1.00  0.00     0.036 C 
ENDROOT
BRANCH   1   2
ATOM      2  C   UNL     1       4.867  -1.585  -1.136  1.00  0.00    -0.048 A 
ATOM      3  C   UNL     1       5.642   0.963  -0.307  1.00  0.00     0.037 A 
ATOM      4  C   UNL     1       4.779   0.815  -1.393  1.00  0.00     0.026 A 
ATOM      5  C   UNL     1       6.117  -0.163   0.364  1.00  0.00     0.026 A 
ATOM      6  C   UNL     1       4.391  -0.459  -1.807  1.00  0.00     0.006 A 
ATOM      7  C   UNL     1       5.730  -1.437  -0.050  1.00  0.00     0.006 A 
BRANCH   3   8
ATOM      8  N   UNL     1       6.033   2.252   0.112  1.00  0.00    -0.369 N 
BRANCH   8   9
ATOM      9  C   UNL     1       5.721   2.715   1.449  1.00  0.00     0.132 C 
BRANCH   9  10
ATOM     10  C   UNL     1       4.219   2.732   1.684  1.00  0.00     0.131 C 
ATOM     11  Cl  UNL     1       3.394   3.819   0.539  1.00  0.00    -0.125 Cl
ENDBRANCH   9  10
ENDBRANCH   8   9
BRANCH   8  12
ATOM     12  C   UNL     1       6.740   3.135  -0.794  1.00  0.00     0.132 C 
BRANCH  12  13
ATOM     13  C   UNL     1       8.218   2.781  -0.858  1.00  0.00     0.131 C 
ATOM     14  Cl  UNL     1       8.992   2.928   0.739  1.00  0.00    -0.125 Cl
ENDBRANCH  12  13
ENDBRANCH   8  12
ENDBRANCH   3   8
ENDBRANCH   1   2
BRANCH   1  15
ATOM     15  C   UNL     1       4.393  -4.010  -0.462  1.00  0.00     0.016 C 
BRANCH  15  16
ATOM     16  C   UNL     1       3.433  -3.652   0.675  1.00  0.00     0.123 C 
BRANCH  16  17
ATOM     17  C   UNL     1       1.998  -3.522   0.217  1.00  0.00     0.306 C 
ATOM     18  O   UNL     1       1.373  -4.403  -0.358  1.00  0.00    -0.252 OA
BRANCH  17  19
ATOM     19  O   UNL     1       1.507  -2.294   0.568  1.00  0.00    -0.462 OA
BRANCH  19  20
ATOM     20  C   UNL     1       0.148  -2.050   0.220  1.00  0.00     0.176 C 
ATOM     21  C   UNL     1      -0.050  -0.562  -0.066  1.00  0.00     0.049 C 
ATOM     22  C   UNL     1      -0.742  -2.541   1.357  1.00  0.00     0.046 C 
ATOM     23  C   UNL     1      -1.530  -0.238  -0.302  1.00  0.00    -0.001 C 
ATOM     24  C   UNL     1      -2.213  -2.179   1.144  1.00  0.00     0.011 C 
ATOM     25  C   UNL     1      -2.449  -0.662   0.887  1.00  0.00    -0.026 C 
ATOM     26  C   UNL     1      -1.727   1.232  -0.685  1.00  0.00     0.004 C 
ATOM     27  C   UNL     1      -3.948  -0.402   0.460  1.00  0.00    -0.001 C 
ATOM     28  C   UNL     1      -3.174   1.477  -1.102  1.00  0.00     0.004 C 
ATOM     29  C   UNL     1      -4.184   1.059  -0.018  1.00  0.00    -0.002 C 
ATOM     30  C   UNL     1      -4.968  -0.779   1.552  1.00  0.00     0.007 C 
ATOM     31  C   UNL     1      -5.659   1.325  -0.455  1.00  0.00     0.018 C 
ATOM     32  C   UNL     1      -6.412  -0.524   1.126  1.00  0.00     0.029 C 
ATOM     33  C   UNL     1      -6.676   0.922   0.651  1.00  0.00     0.040 C 
ATOM     34  C   UNL     1      -6.044   0.636  -1.778  1.00  0.00     0.016 C 
ATOM     35  N   UNL     1      -8.067   0.980   0.163  1.00  0.00    -0.351 N 
ATOM     36  C   UNL     1      -7.443   1.042  -2.207  1.00  0.00     0.100 C 
ATOM     37  C   UNL     1      -8.492   0.872  -1.139  1.00  0.00     0.220 C 
ATOM     38  O   UNL     1      -9.679   0.736  -1.438  1.00  0.00    -0.275 OA
ATOM     39  C   UNL     1      -2.100   0.110   2.187  1.00  0.00     0.012 C 
ATOM     40  C   UNL     1      -6.588   1.896   1.844  1.00  0.00     0.035 C 
ATOM     41  H   UNL     1      -8.799   1.118   0.875  1.00  0.00     0.164 HD
ENDBRANCH  19  20
ENDBRANCH  17  19
ENDBRANCH  16  17
ENDBRANCH  15  16
ENDBRANCH   1  15
TORSDOF 11
