MODEL 1
REMARK VINA RESULT:    -7.675      0.000      0.000
REMARK INTER + INTRA:          -9.732
REMARK INTER:                  -9.470
REMARK INTRA:                  -0.262
REMARK UNBOUND:                -0.262
REMARK SMILES COc1c(O)cc2oc(-c3ccc(O)c(O)c3)cc(=O)c2c1O
REMARK SMILES IDX 8 1 20 2 21 3 7 4 9 5 22 6 19 7 18 8 6 9 3 10 4 11 10 12
REMARK SMILES IDX 17 13 11 14 15 15 12 16 13 17 16 18 14 20 23 22 5 24 2 26
REMARK SMILES IDX 1 27
REMARK H PARENT 16 19 14 21 23 23 5 25
ROOT
ATOM      1  O   UNL     1     -51.756  -0.349  23.730  1.00  0.00    -0.456 OA
ATOM      2  O   UNL     1     -54.905  -1.481  21.406  1.00  0.00    -0.289 OA
ATOM      3  C   UNL     1     -52.667  -0.731  21.511  1.00  0.00     0.111 A 
ATOM      4  C   UNL     1     -51.630  -0.357  22.364  1.00  0.00     0.146 A 
ATOM      5  C   UNL     1     -52.971  -0.722  24.284  1.00  0.00     0.138 A 
ATOM      6  C   UNL     1     -52.482  -0.721  20.126  1.00  0.00     0.176 A 
ATOM      7  C   UNL     1     -53.954  -1.138  22.094  1.00  0.00     0.197 A 
ATOM      8  C   UNL     1     -54.041  -1.110  23.569  1.00  0.00     0.100 A 
ATOM      9  C   UNL     1     -50.399   0.031  21.836  1.00  0.00     0.098 A 
ATOM     10  C   UNL     1     -51.248  -0.332  19.602  1.00  0.00     0.203 A 
ATOM     11  C   UNL     1     -50.210   0.043  20.454  1.00  0.00     0.165 A 
ENDROOT
BRANCH   5  12
ATOM     12  C   UNL     1     -52.996  -0.685  25.759  1.00  0.00     0.021 A 
ATOM     13  C   UNL     1     -53.773   0.268  26.423  1.00  0.00     0.062 A 
ATOM     14  C   UNL     1     -52.243  -1.600  26.498  1.00  0.00     0.016 A 
ATOM     15  C   UNL     1     -53.796   0.305  27.818  1.00  0.00     0.158 A 
ATOM     16  C   UNL     1     -52.266  -1.564  27.892  1.00  0.00     0.051 A 
ATOM     17  C   UNL     1     -53.043  -0.612  28.552  1.00  0.00     0.157 A 
BRANCH  15  18
ATOM     18  O   UNL     1     -54.559   1.239  28.452  1.00  0.00    -0.504 OA
ATOM     19  H   UNL     1     -55.432   1.507  28.070  1.00  0.00     0.293 HD
ENDBRANCH  15  18
BRANCH  17  20
ATOM     20  O   UNL     1     -53.058  -0.587  29.915  1.00  0.00    -0.504 OA
ATOM     21  H   UNL     1     -53.735  -0.045  30.391  1.00  0.00     0.293 HD
ENDBRANCH  17  20
ENDBRANCH   5  12
BRANCH   6  22
ATOM     22  O   UNL     1     -53.472  -1.080  19.262  1.00  0.00    -0.504 OA
ATOM     23  H   UNL     1     -53.725  -0.476  18.520  1.00  0.00     0.293 HD
ENDBRANCH   6  22
BRANCH  11  24
ATOM     24  O   UNL     1     -49.002   0.424  19.949  1.00  0.00    -0.504 OA
ATOM     25  H   UNL     1     -48.959   0.927  19.097  1.00  0.00     0.293 HD
ENDBRANCH  11  24
BRANCH  10  26
ATOM     26  O   UNL     1     -51.054  -0.318  18.251  1.00  0.00    -0.490 OA
ATOM     27  C   UNL     1     -51.197   0.938  17.591  1.00  0.00     0.278 C 
ENDBRANCH  10  26
TORSDOF 6
ENDMDL
MODEL 2
REMARK VINA RESULT:    -6.363      2.221      2.541
REMARK INTER + INTRA:          -8.114
REMARK INTER:                  -7.782
REMARK INTRA:                  -0.331
REMARK UNBOUND:                -0.262
REMARK SMILES COc1c(O)cc2oc(-c3ccc(O)c(O)c3)cc(=O)c2c1O
REMARK SMILES IDX 8 1 20 2 21 3 7 4 9 5 22 6 19 7 18 8 6 9 3 10 4 11 10 12
REMARK SMILES IDX 17 13 11 14 15 15 12 16 13 17 16 18 14 20 23 22 5 24 2 26
REMARK SMILES IDX 1 27
REMARK H PARENT 16 19 14 21 23 23 5 25
ROOT
ATOM      1  O   UNL     1     -52.091   1.610  22.747  1.00  0.00    -0.456 OA
ATOM      2  O   UNL     1     -54.059  -1.894  22.072  1.00  0.00    -0.289 OA
ATOM      3  C   UNL     1     -52.824  -0.091  21.174  1.00  0.00     0.111 A 
ATOM      4  C   UNL     1     -52.165   1.101  21.475  1.00  0.00     0.146 A 
ATOM      5  C   UNL     1     -52.705   0.910  23.775  1.00  0.00     0.138 A 
ATOM      6  C   UNL     1     -52.868  -0.562  19.860  1.00  0.00     0.176 A 
ATOM      7  C   UNL     1     -53.468  -0.840  22.263  1.00  0.00     0.197 A 
ATOM      8  C   UNL     1     -53.362  -0.250  23.613  1.00  0.00     0.100 A 
ATOM      9  C   UNL     1     -51.546   1.830  20.460  1.00  0.00     0.098 A 
ATOM     10  C   UNL     1     -52.246   0.170  18.847  1.00  0.00     0.203 A 
ATOM     11  C   UNL     1     -51.587   1.363  19.147  1.00  0.00     0.165 A 
ENDROOT
BRANCH   5  12
ATOM     12  C   UNL     1     -52.559   1.541  25.101  1.00  0.00     0.021 A 
ATOM     13  C   UNL     1     -52.012   2.822  25.212  1.00  0.00     0.062 A 
ATOM     14  C   UNL     1     -52.966   0.861  26.252  1.00  0.00     0.016 A 
ATOM     15  C   UNL     1     -51.872   3.419  26.466  1.00  0.00     0.158 A 
ATOM     16  C   UNL     1     -52.827   1.457  27.504  1.00  0.00     0.051 A 
ATOM     17  C   UNL     1     -52.281   2.736  27.611  1.00  0.00     0.157 A 
BRANCH  15  18
ATOM     18  O   UNL     1     -51.338   4.669  26.557  1.00  0.00    -0.504 OA
ATOM     19  H   UNL     1     -51.747   5.420  26.058  1.00  0.00     0.293 HD
ENDBRANCH  15  18
BRANCH  17  20
ATOM     20  O   UNL     1     -52.151   3.309  28.842  1.00  0.00    -0.504 OA
ATOM     21  H   UNL     1     -51.400   3.050  29.431  1.00  0.00     0.293 HD
ENDBRANCH  17  20
ENDBRANCH   5  12
BRANCH   6  22
ATOM     22  O   UNL     1     -53.502  -1.721  19.528  1.00  0.00    -0.504 OA
ATOM     23  H   UNL     1     -54.408  -1.908  19.882  1.00  0.00     0.293 HD
ENDBRANCH   6  22
BRANCH  11  24
ATOM     24  O   UNL     1     -50.978   2.084  18.162  1.00  0.00    -0.504 OA
ATOM     25  H   UNL     1     -50.203   2.662  18.379  1.00  0.00     0.293 HD
ENDBRANCH  11  24
BRANCH  10  26
ATOM     26  O   UNL     1     -52.281  -0.279  17.559  1.00  0.00    -0.490 OA
ATOM     27  C   UNL     1     -51.162  -1.038  17.109  1.00  0.00     0.278 C 
ENDBRANCH  10  26
TORSDOF 6
ENDMDL
MODEL 3
REMARK VINA RESULT:    -6.288      2.997      7.972
REMARK INTER + INTRA:          -8.021
REMARK INTER:                  -7.689
REMARK INTRA:                  -0.333
REMARK UNBOUND:                -0.262
REMARK SMILES COc1c(O)cc2oc(-c3ccc(O)c(O)c3)cc(=O)c2c1O
REMARK SMILES IDX 8 1 20 2 21 3 7 4 9 5 22 6 19 7 18 8 6 9 3 10 4 11 10 12
REMARK SMILES IDX 17 13 11 14 15 15 12 16 13 17 16 18 14 20 23 22 5 24 2 26
REMARK SMILES IDX 1 27
REMARK H PARENT 16 19 14 21 23 23 5 25
ROOT
ATOM      1  O   UNL     1     -51.845   2.828  21.899  1.00  0.00    -0.456 OA
ATOM      2  O   UNL     1     -52.672  -0.446  24.180  1.00  0.00    -0.289 OA
ATOM      3  C   UNL     1     -52.487   1.907  24.054  1.00  0.00     0.111 A 
ATOM      4  C   UNL     1     -52.193   2.983  23.218  1.00  0.00     0.146 A 
ATOM      5  C   UNL     1     -51.777   1.544  21.381  1.00  0.00     0.138 A 
ATOM      6  C   UNL     1     -52.835   2.123  25.389  1.00  0.00     0.176 A 
ATOM      7  C   UNL     1     -52.424   0.543  23.505  1.00  0.00     0.197 A 
ATOM      8  C   UNL     1     -52.043   0.430  22.082  1.00  0.00     0.100 A 
ATOM      9  C   UNL     1     -52.246   4.285  23.714  1.00  0.00     0.098 A 
ATOM     10  C   UNL     1     -52.888   3.428  25.882  1.00  0.00     0.203 A 
ATOM     11  C   UNL     1     -52.594   4.506  25.046  1.00  0.00     0.165 A 
ENDROOT
BRANCH   5  12
ATOM     12  C   UNL     1     -51.401   1.492  19.954  1.00  0.00     0.021 A 
ATOM     13  C   UNL     1     -51.346   2.667  19.200  1.00  0.00     0.062 A 
ATOM     14  C   UNL     1     -51.100   0.269  19.351  1.00  0.00     0.016 A 
ATOM     15  C   UNL     1     -50.992   2.619  17.851  1.00  0.00     0.158 A 
ATOM     16  C   UNL     1     -50.746   0.220  18.003  1.00  0.00     0.051 A 
ATOM     17  C   UNL     1     -50.691   1.395  17.254  1.00  0.00     0.157 A 
BRANCH  15  18
ATOM     18  O   UNL     1     -50.942   3.773  17.129  1.00  0.00    -0.504 OA
ATOM     19  H   UNL     1     -51.153   4.637  17.563  1.00  0.00     0.293 HD
ENDBRANCH  15  18
BRANCH  17  20
ATOM     20  O   UNL     1     -50.342   1.334  15.937  1.00  0.00    -0.504 OA
ATOM     21  H   UNL     1     -51.014   1.073  15.259  1.00  0.00     0.293 HD
ENDBRANCH  17  20
ENDBRANCH   5  12
BRANCH   6  22
ATOM     22  O   UNL     1     -53.128   1.096  26.235  1.00  0.00    -0.504 OA
ATOM     23  H   UNL     1     -54.071   0.847  26.404  1.00  0.00     0.293 HD
ENDBRANCH   6  22
BRANCH  11  24
ATOM     24  O   UNL     1     -52.642   5.784  25.521  1.00  0.00    -0.504 OA
ATOM     25  H   UNL     1     -53.422   6.358  25.316  1.00  0.00     0.293 HD
ENDBRANCH  11  24
BRANCH  10  26
ATOM     26  O   UNL     1     -53.227   3.653  27.184  1.00  0.00    -0.490 OA
ATOM     27  C   UNL     1     -52.170   3.628  28.140  1.00  0.00     0.278 C 
ENDBRANCH  10  26
TORSDOF 6
ENDMDL
MODEL 4
REMARK VINA RESULT:    -5.818      3.695      7.876
REMARK INTER + INTRA:          -7.441
REMARK INTER:                  -7.167
REMARK INTRA:                  -0.274
REMARK UNBOUND:                -0.262
REMARK SMILES COc1c(O)cc2oc(-c3ccc(O)c(O)c3)cc(=O)c2c1O
REMARK SMILES IDX 8 1 20 2 21 3 7 4 9 5 22 6 19 7 18 8 6 9 3 10 4 11 10 12
REMARK SMILES IDX 17 13 11 14 15 15 12 16 13 17 16 18 14 20 23 22 5 24 2 26
REMARK SMILES IDX 1 27
REMARK H PARENT 16 19 14 21 23 23 5 25
ROOT
ATOM      1  O   UNL     1     -51.195   2.104  20.209  1.00  0.00    -0.456 OA
ATOM      2  O   UNL     1     -51.080   0.261  23.841  1.00  0.00    -0.289 OA
ATOM      3  C   UNL     1     -51.196   2.288  22.632  1.00  0.00     0.111 A 
ATOM      4  C   UNL     1     -51.233   2.854  21.358  1.00  0.00     0.146 A 
ATOM      5  C   UNL     1     -51.108   0.725  20.322  1.00  0.00     0.138 A 
ATOM      6  C   UNL     1     -51.238   3.100  23.767  1.00  0.00     0.176 A 
ATOM      7  C   UNL     1     -51.113   0.825  22.756  1.00  0.00     0.197 A 
ATOM      8  C   UNL     1     -51.072   0.063  21.491  1.00  0.00     0.100 A 
ATOM      9  C   UNL     1     -51.313   4.238  21.213  1.00  0.00     0.098 A 
ATOM     10  C   UNL     1     -51.318   4.485  23.618  1.00  0.00     0.203 A 
ATOM     11  C   UNL     1     -51.355   5.053  22.344  1.00  0.00     0.165 A 
ENDROOT
BRANCH   5  12
ATOM     12  C   UNL     1     -51.080   0.017  19.028  1.00  0.00     0.021 A 
ATOM     13  C   UNL     1     -52.238  -0.591  18.536  1.00  0.00     0.062 A 
ATOM     14  C   UNL     1     -49.897  -0.050  18.289  1.00  0.00     0.016 A 
ATOM     15  C   UNL     1     -52.212  -1.261  17.312  1.00  0.00     0.158 A 
ATOM     16  C   UNL     1     -49.871  -0.719  17.066  1.00  0.00     0.051 A 
ATOM     17  C   UNL     1     -51.028  -1.324  16.578  1.00  0.00     0.157 A 
BRANCH  15  18
ATOM     18  O   UNL     1     -53.350  -1.848  16.845  1.00  0.00    -0.504 OA
ATOM     19  H   UNL     1     -53.581  -1.784  15.885  1.00  0.00     0.293 HD
ENDBRANCH  15  18
BRANCH  17  20
ATOM     20  O   UNL     1     -50.991  -1.975  15.380  1.00  0.00    -0.504 OA
ATOM     21  H   UNL     1     -51.455  -2.842  15.274  1.00  0.00     0.293 HD
ENDBRANCH  17  20
ENDBRANCH   5  12
BRANCH   6  22
ATOM     22  O   UNL     1     -51.203   2.582  25.027  1.00  0.00    -0.504 OA
ATOM     23  H   UNL     1     -51.794   2.951  25.731  1.00  0.00     0.293 HD
ENDBRANCH   6  22
BRANCH  11  24
ATOM     24  O   UNL     1     -51.433   6.406  22.191  1.00  0.00    -0.504 OA
ATOM     25  H   UNL     1     -51.729   6.973  22.946  1.00  0.00     0.293 HD
ENDBRANCH  11  24
BRANCH  10  26
ATOM     26  O   UNL     1     -51.360   5.290  24.719  1.00  0.00    -0.490 OA
ATOM     27  C   UNL     1     -52.643   5.539  25.289  1.00  0.00     0.278 C 
ENDBRANCH  10  26
TORSDOF 6
ENDMDL
MODEL 5
REMARK VINA RESULT:    -5.223      4.304      8.140
REMARK INTER + INTRA:          -6.707
REMARK INTER:                  -6.411
REMARK INTRA:                  -0.295
REMARK UNBOUND:                -0.262
REMARK SMILES COc1c(O)cc2oc(-c3ccc(O)c(O)c3)cc(=O)c2c1O
REMARK SMILES IDX 8 1 20 2 21 3 7 4 9 5 22 6 19 7 18 8 6 9 3 10 4 11 10 12
REMARK SMILES IDX 17 13 11 14 15 15 12 16 13 17 16 18 14 20 23 22 5 24 2 26
REMARK SMILES IDX 1 27
REMARK H PARENT 16 19 14 21 23 23 5 25
ROOT
ATOM      1  O   UNL     1     -49.255   1.716  19.665  1.00  0.00    -0.456 OA
ATOM      2  O   UNL     1     -50.465   0.415  23.332  1.00  0.00    -0.289 OA
ATOM      3  C   UNL     1     -49.224   1.989  22.079  1.00  0.00     0.111 A 
ATOM      4  C   UNL     1     -48.850   2.381  20.794  1.00  0.00     0.146 A 
ATOM      5  C   UNL     1     -50.068   0.602  19.810  1.00  0.00     0.138 A 
ATOM      6  C   UNL     1     -48.781   2.704  23.194  1.00  0.00     0.176 A 
ATOM      7  C   UNL     1     -50.094   0.813  22.237  1.00  0.00     0.197 A 
ATOM      8  C   UNL     1     -50.502   0.131  20.991  1.00  0.00     0.100 A 
ATOM      9  C   UNL     1     -48.027   3.493  20.618  1.00  0.00     0.098 A 
ATOM     10  C   UNL     1     -47.958   3.817  23.013  1.00  0.00     0.203 A 
ATOM     11  C   UNL     1     -47.582   4.210  21.728  1.00  0.00     0.165 A 
ENDROOT
BRANCH   5  12
ATOM     12  C   UNL     1     -50.451  -0.032  18.533  1.00  0.00     0.021 A 
ATOM     13  C   UNL     1     -51.785  -0.364  18.287  1.00  0.00     0.062 A 
ATOM     14  C   UNL     1     -49.481  -0.304  17.566  1.00  0.00     0.016 A 
ATOM     15  C   UNL     1     -52.148  -0.964  17.081  1.00  0.00     0.158 A 
ATOM     16  C   UNL     1     -49.843  -0.904  16.360  1.00  0.00     0.051 A 
ATOM     17  C   UNL     1     -51.176  -1.234  16.118  1.00  0.00     0.157 A 
BRANCH  15  18
ATOM     18  O   UNL     1     -53.453  -1.281  16.855  1.00  0.00    -0.504 OA
ATOM     19  H   UNL     1     -53.854  -1.125  15.964  1.00  0.00     0.293 HD
ENDBRANCH  15  18
BRANCH  17  20
ATOM     20  O   UNL     1     -51.517  -1.818  14.934  1.00  0.00    -0.504 OA
ATOM     21  H   UNL     1     -52.390  -1.613  14.515  1.00  0.00     0.293 HD
ENDBRANCH  17  20
ENDBRANCH   5  12
BRANCH   6  22
ATOM     22  O   UNL     1     -49.127   2.350  24.463  1.00  0.00    -0.504 OA
ATOM     23  H   UNL     1     -49.373   3.047  25.122  1.00  0.00     0.293 HD
ENDBRANCH   6  22
BRANCH  11  24
ATOM     24  O   UNL     1     -46.778   5.296  21.545  1.00  0.00    -0.504 OA
ATOM     25  H   UNL     1     -46.648   5.667  20.636  1.00  0.00     0.293 HD
ENDBRANCH  11  24
BRANCH  10  26
ATOM     26  O   UNL     1     -47.519   4.524  24.094  1.00  0.00    -0.490 OA
ATOM     27  C   UNL     1     -48.325   5.619  24.521  1.00  0.00     0.278 C 
ENDBRANCH  10  26
TORSDOF 6
ENDMDL
MODEL 6
REMARK VINA RESULT:    -4.873      5.456      8.178
REMARK INTER + INTRA:          -6.275
REMARK INTER:                  -6.004
REMARK INTRA:                  -0.272
REMARK UNBOUND:                -0.262
REMARK SMILES COc1c(O)cc2oc(-c3ccc(O)c(O)c3)cc(=O)c2c1O
REMARK SMILES IDX 8 1 20 2 21 3 7 4 9 5 22 6 19 7 18 8 6 9 3 10 4 11 10 12
REMARK SMILES IDX 17 13 11 14 15 15 12 16 13 17 16 18 14 20 23 22 5 24 2 26
REMARK SMILES IDX 1 27
REMARK H PARENT 16 19 14 21 23 23 5 25
ROOT
ATOM      1  O   UNL     1     -49.125   2.217  18.967  1.00  0.00    -0.456 OA
ATOM      2  O   UNL     1     -46.794   0.857  22.020  1.00  0.00    -0.289 OA
ATOM      3  C   UNL     1     -47.309   2.618  20.531  1.00  0.00     0.111 A 
ATOM      4  C   UNL     1     -48.142   3.021  19.488  1.00  0.00     0.146 A 
ATOM      5  C   UNL     1     -49.289   0.946  19.498  1.00  0.00     0.138 A 
ATOM      6  C   UNL     1     -46.325   3.479  21.022  1.00  0.00     0.176 A 
ATOM      7  C   UNL     1     -47.486   1.275  21.103  1.00  0.00     0.197 A 
ATOM      8  C   UNL     1     -48.555   0.448  20.506  1.00  0.00     0.100 A 
ATOM      9  C   UNL     1     -47.995   4.290  18.929  1.00  0.00     0.098 A 
ATOM     10  C   UNL     1     -46.181   4.749  20.461  1.00  0.00     0.203 A 
ATOM     11  C   UNL     1     -47.014   5.153  19.417  1.00  0.00     0.165 A 
ENDROOT
BRANCH   5  12
ATOM     12  C   UNL     1     -50.376   0.170  18.870  1.00  0.00     0.021 A 
ATOM     13  C   UNL     1     -51.573  -0.044  19.558  1.00  0.00     0.062 A 
ATOM     14  C   UNL     1     -50.213  -0.355  17.586  1.00  0.00     0.016 A 
ATOM     15  C   UNL     1     -52.601  -0.779  18.966  1.00  0.00     0.158 A 
ATOM     16  C   UNL     1     -51.240  -1.089  16.994  1.00  0.00     0.051 A 
ATOM     17  C   UNL     1     -52.434  -1.301  17.683  1.00  0.00     0.157 A 
BRANCH  15  18
ATOM     18  O   UNL     1     -53.762  -0.979  19.650  1.00  0.00    -0.504 OA
ATOM     19  H   UNL     1     -54.630  -0.917  19.178  1.00  0.00     0.293 HD
ENDBRANCH  15  18
BRANCH  17  20
ATOM     20  O   UNL     1     -53.431  -2.019  17.093  1.00  0.00    -0.504 OA
ATOM     21  H   UNL     1     -54.368  -1.708  17.157  1.00  0.00     0.293 HD
ENDBRANCH  17  20
ENDBRANCH   5  12
BRANCH   6  22
ATOM     22  O   UNL     1     -45.492   3.120  22.039  1.00  0.00    -0.504 OA
ATOM     23  H   UNL     1     -45.276   3.769  22.754  1.00  0.00     0.293 HD
ENDBRANCH   6  22
BRANCH  11  24
ATOM     24  O   UNL     1     -46.879   6.392  18.863  1.00  0.00    -0.504 OA
ATOM     25  H   UNL     1     -47.570   6.735  18.242  1.00  0.00     0.293 HD
ENDBRANCH  11  24
BRANCH  10  26
ATOM     26  O   UNL     1     -45.224   5.599  20.931  1.00  0.00    -0.490 OA
ATOM     27  C   UNL     1     -45.634   6.560  21.901  1.00  0.00     0.278 C 
ENDBRANCH  10  26
TORSDOF 6
ENDMDL
