MODEL 1
REMARK VINA RESULT:    -7.893      0.000      0.000
REMARK INTER + INTRA:         -12.651
REMARK INTER:                 -11.816
REMARK INTRA:                  -0.835
REMARK UNBOUND:                -0.835
REMARK SMILES COc1c(O[C@@H]2O[C@H](CO)[C@@H](O)[C@H](O)[C@H]2O)cc2oc(-c3ccc(O)c(O)c3)cc(=O)c2c1O
REMARK SMILES IDX 5 1 6 2 7 3 8 4 11 5 15 6 13 7 9 8 10 9 12 11 16 13 14 15
REMARK SMILES IDX 4 17 3 18 17 19 33 20 18 21 32 22 19 23 30 24 20 25 31 26
REMARK SMILES IDX 29 27 2 28 1 29 34 30 21 32 28 33 22 34 26 35 23 36 24 37
REMARK SMILES IDX 27 38 25 40
REMARK H PARENT 10 10 12 12 16 14 14 16 34 31 27 39 25 41
ROOT
ATOM      1  O   UNL     1     -48.783   0.891  20.109  1.00  0.00    -0.458 OA
ENDROOT
BRANCH   1   2
ATOM      2  C   UNL     1     -48.652   2.311  20.050  1.00  0.00     0.339 C 
ATOM      3  O   UNL     1     -49.879   2.923  20.443  1.00  0.00    -0.332 OA
ATOM      4  C   UNL     1     -49.807   4.351  20.429  1.00  0.00     0.179 C 
ATOM      5  C   UNL     1     -49.550   4.848  19.005  1.00  0.00     0.177 C 
ATOM      6  C   UNL     1     -48.299   2.692  18.613  1.00  0.00     0.214 C 
ATOM      7  C   UNL     1     -48.287   4.209  18.427  1.00  0.00     0.180 C 
BRANCH   4   8
ATOM      8  C   UNL     1     -51.125   4.883  20.984  1.00  0.00     0.191 C 
BRANCH   8   9
ATOM      9  O   UNL     1     -50.916   6.202  21.453  1.00  0.00    -0.394 OA
ATOM     10  H   UNL     1     -51.643   6.788  21.125  1.00  0.00     0.210 HD
ENDBRANCH   8   9
ENDBRANCH   4   8
BRANCH   5  11
ATOM     11  O   UNL     1     -49.397   6.264  19.021  1.00  0.00    -0.387 OA
ATOM     12  H   UNL     1     -48.797   6.524  19.764  1.00  0.00     0.211 HD
ENDBRANCH   5  11
BRANCH   6  13
ATOM     13  O   UNL     1     -47.004   2.169  18.318  1.00  0.00    -0.384 OA
ATOM     14  H   UNL     1     -46.365   2.916  18.199  1.00  0.00     0.211 HD
ENDBRANCH   6  13
BRANCH   7  15
ATOM     15  O   UNL     1     -48.234   4.517  17.033  1.00  0.00    -0.387 OA
ATOM     16  H   UNL     1     -47.563   5.229  16.878  1.00  0.00     0.211 HD
ENDBRANCH   7  15
ENDBRANCH   1   2
BRANCH   1  17
ATOM     17  C   UNL     1     -49.974   0.406  20.567  1.00  0.00     0.172 A 
ATOM     18  C   UNL     1     -50.944  -0.052  19.675  1.00  0.00     0.204 A 
ATOM     19  C   UNL     1     -50.213   0.370  21.942  1.00  0.00     0.098 A 
ATOM     20  C   UNL     1     -52.158  -0.546  20.153  1.00  0.00     0.176 A 
ATOM     21  C   UNL     1     -51.426  -0.123  22.422  1.00  0.00     0.146 A 
ATOM     22  C   UNL     1     -52.395  -0.580  21.529  1.00  0.00     0.111 A 
ATOM     23  O   UNL     1     -51.604  -0.134  23.781  1.00  0.00    -0.456 OA
ATOM     24  C   UNL     1     -53.664  -1.096  22.063  1.00  0.00     0.197 A 
ATOM     25  C   UNL     1     -52.804  -0.611  24.288  1.00  0.00     0.138 A 
ATOM     26  O   UNL     1     -54.556  -1.515  21.338  1.00  0.00    -0.289 OA
ATOM     27  C   UNL     1     -53.808  -1.083  23.532  1.00  0.00     0.100 A 
BRANCH  18  28
ATOM     28  O   UNL     1     -50.702  -0.014  18.333  1.00  0.00    -0.490 OA
ATOM     29  C   UNL     1     -51.207   1.111  17.616  1.00  0.00     0.278 C 
ENDBRANCH  18  28
BRANCH  20  30
ATOM     30  O   UNL     1     -53.082  -0.983  19.250  1.00  0.00    -0.504 OA
ATOM     31  H   UNL     1     -52.801  -1.552  18.490  1.00  0.00     0.293 HD
ENDBRANCH  20  30
BRANCH  25  32
ATOM     32  C   UNL     1     -52.887  -0.582  25.762  1.00  0.00     0.021 A 
ATOM     33  C   UNL     1     -53.658   0.391  26.403  1.00  0.00     0.062 A 
ATOM     34  C   UNL     1     -52.195  -1.529  26.521  1.00  0.00     0.016 A 
ATOM     35  C   UNL     1     -53.737   0.417  27.796  1.00  0.00     0.158 A 
ATOM     36  C   UNL     1     -52.274  -1.503  27.914  1.00  0.00     0.051 A 
ATOM     37  C   UNL     1     -53.044  -0.530  28.551  1.00  0.00     0.157 A 
BRANCH  35  38
ATOM     38  O   UNL     1     -54.492   1.372  28.407  1.00  0.00    -0.504 OA
ATOM     39  H   UNL     1     -54.111   1.902  29.150  1.00  0.00     0.293 HD
ENDBRANCH  35  38
BRANCH  37  40
ATOM     40  O   UNL     1     -53.112  -0.514  29.911  1.00  0.00    -0.504 OA
ATOM     41  H   UNL     1     -52.780  -1.288  30.433  1.00  0.00     0.293 HD
ENDBRANCH  37  40
ENDBRANCH  25  32
ENDBRANCH   1  17
TORSDOF 12
ENDMDL
MODEL 2
REMARK VINA RESULT:    -7.507      1.607      2.385
REMARK INTER + INTRA:         -12.072
REMARK INTER:                 -11.562
REMARK INTRA:                  -0.510
REMARK UNBOUND:                -0.835
REMARK SMILES COc1c(O[C@@H]2O[C@H](CO)[C@@H](O)[C@H](O)[C@H]2O)cc2oc(-c3ccc(O)c(O)c3)cc(=O)c2c1O
REMARK SMILES IDX 5 1 6 2 7 3 8 4 11 5 15 6 13 7 9 8 10 9 12 11 16 13 14 15
REMARK SMILES IDX 4 17 3 18 17 19 33 20 18 21 32 22 19 23 30 24 20 25 31 26
REMARK SMILES IDX 29 27 2 28 1 29 34 30 21 32 28 33 22 34 26 35 23 36 24 37
REMARK SMILES IDX 27 38 25 40
REMARK H PARENT 10 10 12 12 16 14 14 16 34 31 27 39 25 41
ROOT
ATOM      1  O   UNL     1     -49.525   1.843  20.364  1.00  0.00    -0.458 OA
ENDROOT
BRANCH   1   2
ATOM      2  C   UNL     1     -49.264   3.110  20.968  1.00  0.00     0.339 C 
ATOM      3  O   UNL     1     -48.889   2.925  22.331  1.00  0.00    -0.332 OA
ATOM      4  C   UNL     1     -48.590   4.158  22.989  1.00  0.00     0.179 C 
ATOM      5  C   UNL     1     -49.838   5.041  23.036  1.00  0.00     0.177 C 
ATOM      6  C   UNL     1     -50.539   3.948  20.873  1.00  0.00     0.214 C 
ATOM      7  C   UNL     1     -50.396   5.268  21.630  1.00  0.00     0.180 C 
BRANCH   4   8
ATOM      8  C   UNL     1     -48.083   3.821  24.389  1.00  0.00     0.191 C 
BRANCH   8   9
ATOM      9  O   UNL     1     -49.167   3.921  25.295  1.00  0.00    -0.394 OA
ATOM     10  H   UNL     1     -49.266   3.068  25.786  1.00  0.00     0.210 HD
ENDBRANCH   8   9
ENDBRANCH   4   8
BRANCH   5  11
ATOM     11  O   UNL     1     -49.504   6.298  23.618  1.00  0.00    -0.387 OA
ATOM     12  H   UNL     1     -50.056   7.009  23.207  1.00  0.00     0.211 HD
ENDBRANCH   5  11
BRANCH   6  13
ATOM     13  O   UNL     1     -50.794   4.218  19.494  1.00  0.00    -0.384 OA
ATOM     14  H   UNL     1     -51.509   4.898  19.418  1.00  0.00     0.211 HD
ENDBRANCH   6  13
BRANCH   7  15
ATOM     15  O   UNL     1     -51.677   5.886  21.757  1.00  0.00    -0.387 OA
ATOM     16  H   UNL     1     -51.706   6.703  21.200  1.00  0.00     0.211 HD
ENDBRANCH   7  15
ENDBRANCH   1   2
BRANCH   1  17
ATOM     17  C   UNL     1     -50.587   1.140  20.855  1.00  0.00     0.172 A 
ATOM     18  C   UNL     1     -51.541   0.602  19.990  1.00  0.00     0.204 A 
ATOM     19  C   UNL     1     -50.710   0.961  22.234  1.00  0.00     0.098 A 
ATOM     20  C   UNL     1     -52.623  -0.116  20.500  1.00  0.00     0.176 A 
ATOM     21  C   UNL     1     -51.791   0.244  22.746  1.00  0.00     0.146 A 
ATOM     22  C   UNL     1     -52.744  -0.292  21.880  1.00  0.00     0.111 A 
ATOM     23  O   UNL     1     -51.859   0.101  24.108  1.00  0.00    -0.456 OA
ATOM     24  C   UNL     1     -53.873  -1.045  22.448  1.00  0.00     0.197 A 
ATOM     25  C   UNL     1     -52.928  -0.600  24.647  1.00  0.00     0.138 A 
ATOM     26  O   UNL     1     -54.743  -1.545  21.749  1.00  0.00    -0.289 OA
ATOM     27  C   UNL     1     -53.902  -1.168  23.918  1.00  0.00     0.100 A 
BRANCH  18  28
ATOM     28  O   UNL     1     -51.413   0.781  18.644  1.00  0.00    -0.490 OA
ATOM     29  C   UNL     1     -50.646  -0.189  17.932  1.00  0.00     0.278 C 
ENDBRANCH  18  28
BRANCH  20  30
ATOM     30  O   UNL     1     -53.536  -0.625  19.624  1.00  0.00    -0.504 OA
ATOM     31  H   UNL     1     -54.173  -1.322  19.922  1.00  0.00     0.293 HD
ENDBRANCH  20  30
BRANCH  25  32
ATOM     32  C   UNL     1     -52.899  -0.698  26.120  1.00  0.00     0.021 A 
ATOM     33  C   UNL     1     -53.404   0.343  26.903  1.00  0.00     0.062 A 
ATOM     34  C   UNL     1     -52.368  -1.833  26.737  1.00  0.00     0.016 A 
ATOM     35  C   UNL     1     -53.378   0.250  28.294  1.00  0.00     0.158 A 
ATOM     36  C   UNL     1     -52.341  -1.927  28.129  1.00  0.00     0.051 A 
ATOM     37  C   UNL     1     -52.845  -0.885  28.907  1.00  0.00     0.157 A 
BRANCH  35  38
ATOM     38  O   UNL     1     -53.873   1.274  29.044  1.00  0.00    -0.504 OA
ATOM     39  H   UNL     1     -54.391   1.998  28.612  1.00  0.00     0.293 HD
ENDBRANCH  35  38
BRANCH  37  40
ATOM     40  O   UNL     1     -52.814  -0.988  30.265  1.00  0.00    -0.504 OA
ATOM     41  H   UNL     1     -53.123  -0.233  30.826  1.00  0.00     0.293 HD
ENDBRANCH  37  40
ENDBRANCH  25  32
ENDBRANCH   1  17
TORSDOF 12
ENDMDL
MODEL 3
REMARK VINA RESULT:    -6.474      2.831      5.870
REMARK INTER + INTRA:         -10.527
REMARK INTER:                  -9.748
REMARK INTRA:                  -0.779
REMARK UNBOUND:                -0.835
REMARK SMILES COc1c(O[C@@H]2O[C@H](CO)[C@@H](O)[C@H](O)[C@H]2O)cc2oc(-c3ccc(O)c(O)c3)cc(=O)c2c1O
REMARK SMILES IDX 5 1 6 2 7 3 8 4 11 5 15 6 13 7 9 8 10 9 12 11 16 13 14 15
REMARK SMILES IDX 4 17 3 18 17 19 33 20 18 21 32 22 19 23 30 24 20 25 31 26
REMARK SMILES IDX 29 27 2 28 1 29 34 30 21 32 28 33 22 34 26 35 23 36 24 37
REMARK SMILES IDX 27 38 25 40
REMARK H PARENT 10 10 12 12 16 14 14 16 34 31 27 39 25 41
ROOT
ATOM      1  O   UNL     1     -48.555   6.177  20.778  1.00  0.00    -0.458 OA
ENDROOT
BRANCH   1   2
ATOM      2  C   UNL     1     -48.746   6.922  21.980  1.00  0.00     0.339 C 
ATOM      3  O   UNL     1     -47.871   6.431  22.993  1.00  0.00    -0.332 OA
ATOM      4  C   UNL     1     -47.995   7.154  24.221  1.00  0.00     0.179 C 
ATOM      5  C   UNL     1     -49.404   6.978  24.790  1.00  0.00     0.177 C 
ATOM      6  C   UNL     1     -50.205   6.761  22.407  1.00  0.00     0.214 C 
ATOM      7  C   UNL     1     -50.460   7.406  23.770  1.00  0.00     0.180 C 
BRANCH   4   8
ATOM      8  C   UNL     1     -46.930   6.623  25.176  1.00  0.00     0.191 C 
BRANCH   8   9
ATOM      9  O   UNL     1     -47.554   5.771  26.118  1.00  0.00    -0.394 OA
ATOM     10  H   UNL     1     -47.796   4.917  25.682  1.00  0.00     0.210 HD
ENDBRANCH   8   9
ENDBRANCH   4   8
BRANCH   5  11
ATOM     11  O   UNL     1     -49.539   7.770  25.967  1.00  0.00    -0.387 OA
ATOM     12  H   UNL     1     -49.877   8.667  25.724  1.00  0.00     0.211 HD
ENDBRANCH   5  11
BRANCH   6  13
ATOM     13  O   UNL     1     -51.029   7.388  21.425  1.00  0.00    -0.384 OA
ATOM     14  H   UNL     1     -51.621   6.712  21.010  1.00  0.00     0.211 HD
ENDBRANCH   6  13
BRANCH   7  15
ATOM     15  O   UNL     1     -51.738   6.996  24.258  1.00  0.00    -0.387 OA
ATOM     16  H   UNL     1     -51.618   6.313  24.964  1.00  0.00     0.211 HD
ENDBRANCH   7  15
ENDBRANCH   1   2
BRANCH   1  17
ATOM     17  C   UNL     1     -48.422   4.825  20.911  1.00  0.00     0.172 A 
ATOM     18  C   UNL     1     -47.167   4.223  20.812  1.00  0.00     0.204 A 
ATOM     19  C   UNL     1     -49.556   4.047  21.150  1.00  0.00     0.098 A 
ATOM     20  C   UNL     1     -47.039   2.841  20.950  1.00  0.00     0.176 A 
ATOM     21  C   UNL     1     -49.431   2.664  21.287  1.00  0.00     0.146 A 
ATOM     22  C   UNL     1     -48.176   2.065  21.188  1.00  0.00     0.111 A 
ATOM     23  O   UNL     1     -50.579   1.952  21.521  1.00  0.00    -0.456 OA
ATOM     24  C   UNL     1     -48.074   0.605  21.339  1.00  0.00     0.197 A 
ATOM     25  C   UNL     1     -50.487   0.574  21.654  1.00  0.00     0.138 A 
ATOM     26  O   UNL     1     -47.006   0.013  21.266  1.00  0.00    -0.289 OA
ATOM     27  C   UNL     1     -49.338  -0.115  21.585  1.00  0.00     0.100 A 
BRANCH  18  28
ATOM     28  O   UNL     1     -46.063   4.992  20.579  1.00  0.00    -0.490 OA
ATOM     29  C   UNL     1     -45.727   5.244  19.217  1.00  0.00     0.278 C 
ENDBRANCH  18  28
BRANCH  20  30
ATOM     30  O   UNL     1     -45.797   2.289  20.845  1.00  0.00    -0.504 OA
ATOM     31  H   UNL     1     -45.697   1.338  20.589  1.00  0.00     0.293 HD
ENDBRANCH  20  30
BRANCH  25  32
ATOM     32  C   UNL     1     -51.781  -0.091  21.908  1.00  0.00     0.021 A 
ATOM     33  C   UNL     1     -52.285  -0.173  23.208  1.00  0.00     0.062 A 
ATOM     34  C   UNL     1     -52.507  -0.640  20.848  1.00  0.00     0.016 A 
ATOM     35  C   UNL     1     -53.508  -0.801  23.448  1.00  0.00     0.158 A 
ATOM     36  C   UNL     1     -53.729  -1.269  21.087  1.00  0.00     0.051 A 
ATOM     37  C   UNL     1     -54.229  -1.349  22.387  1.00  0.00     0.157 A 
BRANCH  35  38
ATOM     38  O   UNL     1     -53.986  -0.873  24.721  1.00  0.00    -0.504 OA
ATOM     39  H   UNL     1     -54.541  -1.645  24.998  1.00  0.00     0.293 HD
ENDBRANCH  35  38
BRANCH  37  40
ATOM     40  O   UNL     1     -55.424  -1.964  22.608  1.00  0.00    -0.504 OA
ATOM     41  H   UNL     1     -56.148  -1.896  21.936  1.00  0.00     0.293 HD
ENDBRANCH  37  40
ENDBRANCH  25  32
ENDBRANCH   1  17
TORSDOF 12
ENDMDL
