MODEL 1
REMARK VINA RESULT:   -10.435      0.000      0.000
REMARK INTER + INTRA:         -14.305
REMARK INTER:                 -13.791
REMARK INTRA:                  -0.514
REMARK UNBOUND:                -0.514
REMARK SMILES C[C@@]1(c2nc(NC(=O)c3ncc(C(F)(F)F)cc3Cl)ccc2F)CO[C@@](C)(C(F)(F)F)C(N)N1
REMARK SMILES IDX 5 1 20 2 21 3 22 4 3 5 4 6 23 7 6 8 7 9 8 10 9 12 18 13
REMARK SMILES IDX 17 14 12 15 10 16 11 17 19 18 13 19 14 20 15 21 16 22 2 23
REMARK SMILES IDX 34 24 24 25 32 26 25 27 26 28 1 29 27 31 33 32 28 35 29 36
REMARK SMILES IDX 30 37 31 38
REMARK H PARENT 6 11 34 30 33 33 33 34
ROOT
ATOM      1  C   UNL     1      28.914  77.285  20.832  1.00  0.00     0.133 A 
ATOM      2  C   UNL     1      29.854  77.934  21.663  1.00  0.00     0.050 A 
ATOM      3  C   UNL     1      30.693  77.139  22.439  1.00  0.00     0.045 A 
ATOM      4  C   UNL     1      30.569  75.760  22.375  1.00  0.00     0.146 A 
ATOM      5  C   UNL     1      29.555  75.151  21.586  1.00  0.00     0.101 A 
ATOM      6  N   UNL     1      28.776  75.966  20.859  1.00  0.00    -0.231 NA
ATOM      7  F   UNL     1      31.355  75.002  23.121  1.00  0.00    -0.205 F 
ENDROOT
BRANCH   1   8
ATOM      8  N   UNL     1      28.047  77.976  19.978  1.00  0.00    -0.305 N 
ATOM      9  C   UNL     1      27.699  79.264  20.031  1.00  0.00     0.276 C 
ATOM     10  O   UNL     1      28.004  80.046  20.928  1.00  0.00    -0.267 OA
ATOM     11  H   UNL     1      27.628  77.425  19.216  1.00  0.00     0.171 HD
BRANCH   9  12
ATOM     12  C   UNL     1      26.813  79.754  18.948  1.00  0.00     0.147 A 
ATOM     13  C   UNL     1      27.222  80.660  17.955  1.00  0.00     0.073 A 
ATOM     14  C   UNL     1      26.326  81.052  16.978  1.00  0.00     0.037 A 
ATOM     15  C   UNL     1      25.028  80.536  17.047  1.00  0.00     0.075 A 
ATOM     16  N   UNL     1      25.553  79.282  18.983  1.00  0.00    -0.249 NA
ATOM     17  C   UNL     1      24.674  79.654  18.050  1.00  0.00     0.125 A 
ATOM     18  Cl  UNL     1      28.871  81.271  17.885  1.00  0.00    -0.082 Cl
BRANCH  15  19
ATOM     19  C   UNL     1      24.000  80.935  16.034  1.00  0.00     0.417 C 
ATOM     20  F   UNL     1      22.817  80.403  16.343  1.00  0.00    -0.166 F 
ATOM     21  F   UNL     1      23.900  82.269  15.920  1.00  0.00    -0.166 F 
ATOM     22  F   UNL     1      24.352  80.385  14.860  1.00  0.00    -0.166 F 
ENDBRANCH  15  19
ENDBRANCH   9  12
ENDBRANCH   1   8
BRANCH   5  23
ATOM     23  C   UNL     1      29.314  73.638  21.502  1.00  0.00     0.086 C 
ATOM     24  N   UNL     1      28.133  73.378  20.674  1.00  0.00    -0.287 NA
ATOM     25  C   UNL     1      30.570  72.968  20.903  1.00  0.00     0.190 C 
ATOM     26  C   UNL     1      28.244  73.179  19.412  1.00  0.00     0.161 C 
ATOM     27  O   UNL     1      30.666  73.470  19.554  1.00  0.00    -0.360 OA
ATOM     28  C   UNL     1      29.581  73.236  18.648  1.00  0.00     0.188 C 
ATOM     29  C   UNL     1      28.997  73.102  22.931  1.00  0.00     0.038 C 
ATOM     30  H   UNL     1      27.680  72.538  21.065  1.00  0.00     0.125 HD
ATOM     31  C   UNL     1      29.616  74.405  17.610  1.00  0.00     0.056 C 
BRANCH  26  32
ATOM     32  N   UNL     1      27.129  72.931  18.745  1.00  0.00    -0.313 NA
ATOM     33  H   UNL     1      26.749  73.813  18.372  1.00  0.00     0.120 HD
ATOM     34  H   UNL     1      27.331  72.287  17.967  1.00  0.00     0.120 HD
ENDBRANCH  26  32
BRANCH  28  35
ATOM     35  C   UNL     1      29.908  71.877  18.007  1.00  0.00     0.420 C 
ATOM     36  F   UNL     1      29.347  71.858  16.780  1.00  0.00    -0.168 F 
ATOM     37  F   UNL     1      31.260  71.798  17.853  1.00  0.00    -0.168 F 
ATOM     38  F   UNL     1      29.416  70.863  18.760  1.00  0.00    -0.168 F 
ENDBRANCH  28  35
ENDBRANCH   5  23
TORSDOF 6
ENDMDL
MODEL 2
REMARK VINA RESULT:    -9.134      2.003      2.536
REMARK INTER + INTRA:         -12.585
REMARK INTER:                 -12.006
REMARK INTRA:                  -0.579
REMARK UNBOUND:                -0.514
REMARK SMILES C[C@@]1(c2nc(NC(=O)c3ncc(C(F)(F)F)cc3Cl)ccc2F)CO[C@@](C)(C(F)(F)F)C(N)N1
REMARK SMILES IDX 5 1 20 2 21 3 22 4 3 5 4 6 23 7 6 8 7 9 8 10 9 12 18 13
REMARK SMILES IDX 17 14 12 15 10 16 11 17 19 18 13 19 14 20 15 21 16 22 2 23
REMARK SMILES IDX 34 24 24 25 32 26 25 27 26 28 1 29 27 31 33 32 28 35 29 36
REMARK SMILES IDX 30 37 31 38
REMARK H PARENT 6 11 34 30 33 33 33 34
ROOT
ATOM      1  C   UNL     1      28.961  77.307  20.659  1.00  0.00     0.133 A 
ATOM      2  C   UNL     1      29.260  77.706  21.981  1.00  0.00     0.050 A 
ATOM      3  C   UNL     1      30.199  76.959  22.688  1.00  0.00     0.045 A 
ATOM      4  C   UNL     1      30.789  75.863  22.081  1.00  0.00     0.146 A 
ATOM      5  C   UNL     1      30.399  75.449  20.777  1.00  0.00     0.101 A 
ATOM      6  N   UNL     1      29.491  76.206  20.143  1.00  0.00    -0.231 NA
ATOM      7  F   UNL     1      31.671  75.143  22.754  1.00  0.00    -0.205 F 
ENDROOT
BRANCH   1   8
ATOM      8  N   UNL     1      28.066  78.002  19.838  1.00  0.00    -0.305 N 
ATOM      9  C   UNL     1      27.782  79.307  19.855  1.00  0.00     0.276 C 
ATOM     10  O   UNL     1      28.188  80.110  20.691  1.00  0.00    -0.267 OA
ATOM     11  H   UNL     1      27.567  77.439  19.134  1.00  0.00     0.171 HD
BRANCH   9  12
ATOM     12  C   UNL     1      26.843  79.792  18.816  1.00  0.00     0.147 A 
ATOM     13  C   UNL     1      27.213  80.652  17.770  1.00  0.00     0.073 A 
ATOM     14  C   UNL     1      26.267  81.043  16.840  1.00  0.00     0.037 A 
ATOM     15  C   UNL     1      24.961  80.573  17.010  1.00  0.00     0.075 A 
ATOM     16  N   UNL     1      25.573  79.363  18.949  1.00  0.00    -0.249 NA
ATOM     17  C   UNL     1      24.647  79.734  18.063  1.00  0.00     0.125 A 
ATOM     18  Cl  UNL     1      28.872  81.206  17.572  1.00  0.00    -0.082 Cl
BRANCH  15  19
ATOM     19  C   UNL     1      23.882  80.974  16.054  1.00  0.00     0.417 C 
ATOM     20  F   UNL     1      24.354  80.999  14.807  1.00  0.00    -0.166 F 
ATOM     21  F   UNL     1      22.814  80.163  16.135  1.00  0.00    -0.166 F 
ATOM     22  F   UNL     1      23.536  82.240  16.339  1.00  0.00    -0.166 F 
ENDBRANCH  15  19
ENDBRANCH   9  12
ENDBRANCH   1   8
BRANCH   5  23
ATOM     23  C   UNL     1      30.961  74.218  20.055  1.00  0.00     0.086 C 
ATOM     24  N   UNL     1      30.365  74.122  18.719  1.00  0.00    -0.287 NA
ATOM     25  C   UNL     1      32.497  74.350  19.969  1.00  0.00     0.190 C 
ATOM     26  C   UNL     1      30.931  74.667  17.705  1.00  0.00     0.161 C 
ATOM     27  O   UNL     1      32.737  75.497  19.127  1.00  0.00    -0.360 OA
ATOM     28  C   UNL     1      32.231  75.491  17.787  1.00  0.00     0.188 C 
ATOM     29  C   UNL     1      30.533  72.939  20.838  1.00  0.00     0.038 C 
ATOM     30  H   UNL     1      30.285  73.117  18.505  1.00  0.00     0.125 HD
ATOM     31  C   UNL     1      32.003  76.988  17.397  1.00  0.00     0.056 C 
BRANCH  26  32
ATOM     32  N   UNL     1      30.336  74.514  16.534  1.00  0.00    -0.313 NA
ATOM     33  H   UNL     1      29.614  73.782  16.608  1.00  0.00     0.120 HD
ATOM     34  H   UNL     1      29.897  75.402  16.253  1.00  0.00     0.120 HD
ENDBRANCH  26  32
BRANCH  28  35
ATOM     35  C   UNL     1      33.352  74.837  16.961  1.00  0.00     0.420 C 
ATOM     36  F   UNL     1      33.137  73.505  16.962  1.00  0.00    -0.168 F 
ATOM     37  F   UNL     1      33.243  75.280  15.677  1.00  0.00    -0.168 F 
ATOM     38  F   UNL     1      34.565  75.113  17.499  1.00  0.00    -0.168 F 
ENDBRANCH  28  35
ENDBRANCH   5  23
TORSDOF 6
ENDMDL
MODEL 3
REMARK VINA RESULT:    -9.069      2.992      3.817
REMARK INTER + INTRA:         -12.498
REMARK INTER:                 -11.784
REMARK INTRA:                  -0.714
REMARK UNBOUND:                -0.514
REMARK SMILES C[C@@]1(c2nc(NC(=O)c3ncc(C(F)(F)F)cc3Cl)ccc2F)CO[C@@](C)(C(F)(F)F)C(N)N1
REMARK SMILES IDX 5 1 20 2 21 3 22 4 3 5 4 6 23 7 6 8 7 9 8 10 9 12 18 13
REMARK SMILES IDX 17 14 12 15 10 16 11 17 19 18 13 19 14 20 15 21 16 22 2 23
REMARK SMILES IDX 34 24 24 25 32 26 25 27 26 28 1 29 27 31 33 32 28 35 29 36
REMARK SMILES IDX 30 37 31 38
REMARK H PARENT 6 11 34 30 33 33 33 34
ROOT
ATOM      1  C   UNL     1      29.624  77.670  20.344  1.00  0.00     0.133 A 
ATOM      2  C   UNL     1      29.412  77.017  21.578  1.00  0.00     0.050 A 
ATOM      3  C   UNL     1      30.527  76.529  22.254  1.00  0.00     0.045 A 
ATOM      4  C   UNL     1      31.783  76.690  21.693  1.00  0.00     0.146 A 
ATOM      5  C   UNL     1      31.943  77.282  20.409  1.00  0.00     0.101 A 
ATOM      6  N   UNL     1      30.834  77.735  19.805  1.00  0.00    -0.231 NA
ATOM      7  F   UNL     1      32.843  76.216  22.325  1.00  0.00    -0.205 F 
ENDROOT
BRANCH   1   8
ATOM      8  N   UNL     1      28.586  78.238  19.594  1.00  0.00    -0.305 N 
ATOM      9  C   UNL     1      27.945  79.387  19.821  1.00  0.00     0.276 C 
ATOM     10  O   UNL     1      28.090  80.097  20.813  1.00  0.00    -0.267 OA
ATOM     11  H   UNL     1      28.281  77.705  18.768  1.00  0.00     0.171 HD
BRANCH   9  12
ATOM     12  C   UNL     1      26.929  79.786  18.818  1.00  0.00     0.147 A 
ATOM     13  C   UNL     1      27.204  80.609  17.714  1.00  0.00     0.073 A 
ATOM     14  C   UNL     1      26.191  80.919  16.825  1.00  0.00     0.037 A 
ATOM     15  C   UNL     1      24.918  80.407  17.092  1.00  0.00     0.075 A 
ATOM     16  N   UNL     1      25.688  79.314  19.044  1.00  0.00    -0.249 NA
ATOM     17  C   UNL     1      24.698  79.607  18.198  1.00  0.00     0.125 A 
ATOM     18  Cl  UNL     1      28.824  81.217  17.395  1.00  0.00    -0.082 Cl
BRANCH  15  19
ATOM     19  C   UNL     1      23.770  80.720  16.184  1.00  0.00     0.417 C 
ATOM     20  F   UNL     1      22.612  80.502  16.809  1.00  0.00    -0.166 F 
ATOM     21  F   UNL     1      23.825  81.980  15.723  1.00  0.00    -0.166 F 
ATOM     22  F   UNL     1      23.806  79.843  15.167  1.00  0.00    -0.166 F 
ENDBRANCH  15  19
ENDBRANCH   9  12
ENDBRANCH   1   8
BRANCH   5  23
ATOM     23  C   UNL     1      33.289  77.449  19.694  1.00  0.00     0.086 C 
ATOM     24  N   UNL     1      34.048  76.198  19.784  1.00  0.00    -0.287 NA
ATOM     25  C   UNL     1      33.026  77.833  18.221  1.00  0.00     0.190 C 
ATOM     26  C   UNL     1      33.955  75.304  18.869  1.00  0.00     0.161 C 
ATOM     27  O   UNL     1      32.362  76.691  17.640  1.00  0.00    -0.360 OA
ATOM     28  C   UNL     1      33.032  75.425  17.640  1.00  0.00     0.188 C 
ATOM     29  C   UNL     1      34.118  78.539  20.437  1.00  0.00     0.038 C 
ATOM     30  H   UNL     1      35.043  76.461  19.836  1.00  0.00     0.125 HD
ATOM     31  C   UNL     1      31.911  74.335  17.637  1.00  0.00     0.056 C 
BRANCH  26  32
ATOM     32  N   UNL     1      34.690  74.214  19.019  1.00  0.00    -0.313 NA
ATOM     33  H   UNL     1      34.088  73.433  19.318  1.00  0.00     0.120 HD
ATOM     34  H   UNL     1      35.140  73.978  18.124  1.00  0.00     0.120 HD
ENDBRANCH  26  32
BRANCH  28  35
ATOM     35  C   UNL     1      33.848  75.428  16.336  1.00  0.00     0.420 C 
ATOM     36  F   UNL     1      35.052  75.973  16.607  1.00  0.00    -0.168 F 
ATOM     37  F   UNL     1      34.047  74.133  15.961  1.00  0.00    -0.168 F 
ATOM     38  F   UNL     1      33.215  76.149  15.378  1.00  0.00    -0.168 F 
ENDBRANCH  28  35
ENDBRANCH   5  23
TORSDOF 6
ENDMDL
MODEL 4
REMARK VINA RESULT:    -8.920      5.447      8.382
REMARK INTER + INTRA:         -12.302
REMARK INTER:                 -11.188
REMARK INTRA:                  -1.114
REMARK UNBOUND:                -0.514
REMARK SMILES C[C@@]1(c2nc(NC(=O)c3ncc(C(F)(F)F)cc3Cl)ccc2F)CO[C@@](C)(C(F)(F)F)C(N)N1
REMARK SMILES IDX 5 1 20 2 21 3 22 4 3 5 4 6 23 7 6 8 7 9 8 10 9 12 18 13
REMARK SMILES IDX 17 14 12 15 10 16 11 17 19 18 13 19 14 20 15 21 16 22 2 23
REMARK SMILES IDX 34 24 24 25 32 26 25 27 26 28 1 29 27 31 33 32 28 35 29 36
REMARK SMILES IDX 30 37 31 38
REMARK H PARENT 6 11 34 30 33 33 33 34
ROOT
ATOM      1  C   UNL     1      30.274  72.876  20.494  1.00  0.00     0.133 A 
ATOM      2  C   UNL     1      29.318  72.865  21.533  1.00  0.00     0.050 A 
ATOM      3  C   UNL     1      29.440  73.821  22.538  1.00  0.00     0.045 A 
ATOM      4  C   UNL     1      30.486  74.729  22.486  1.00  0.00     0.146 A 
ATOM      5  C   UNL     1      31.473  74.652  21.464  1.00  0.00     0.101 A 
ATOM      6  N   UNL     1      31.304  73.711  20.523  1.00  0.00    -0.231 NA
ATOM      7  F   UNL     1      30.613  75.630  23.445  1.00  0.00    -0.205 F 
ENDROOT
BRANCH   1   8
ATOM      8  N   UNL     1      30.231  71.991  19.410  1.00  0.00    -0.305 N 
ATOM      9  C   UNL     1      29.685  72.193  18.208  1.00  0.00     0.276 C 
ATOM     10  O   UNL     1      29.018  73.173  17.888  1.00  0.00    -0.267 OA
ATOM     11  H   UNL     1      30.675  71.073  19.557  1.00  0.00     0.171 HD
BRANCH   9  12
ATOM     12  C   UNL     1      29.850  71.104  17.216  1.00  0.00     0.147 A 
ATOM     13  C   UNL     1      30.935  71.014  16.329  1.00  0.00     0.073 A 
ATOM     14  C   UNL     1      31.007  69.953  15.445  1.00  0.00     0.037 A 
ATOM     15  C   UNL     1      29.962  69.024  15.463  1.00  0.00     0.075 A 
ATOM     16  N   UNL     1      28.860  70.191  17.201  1.00  0.00    -0.249 NA
ATOM     17  C   UNL     1      28.911  69.164  16.351  1.00  0.00     0.125 A 
ATOM     18  Cl  UNL     1      32.246  72.188  16.350  1.00  0.00    -0.082 Cl
BRANCH  15  19
ATOM     19  C   UNL     1      29.964  67.864  14.518  1.00  0.00     0.417 C 
ATOM     20  F   UNL     1      29.679  68.274  13.281  1.00  0.00    -0.166 F 
ATOM     21  F   UNL     1      31.135  67.205  14.536  1.00  0.00    -0.166 F 
ATOM     22  F   UNL     1      28.958  67.048  14.874  1.00  0.00    -0.166 F 
ENDBRANCH  15  19
ENDBRANCH   9  12
ENDBRANCH   1   8
BRANCH   5  23
ATOM     23  C   UNL     1      32.689  75.581  21.364  1.00  0.00     0.086 C 
ATOM     24  N   UNL     1      33.613  75.067  20.349  1.00  0.00    -0.287 NA
ATOM     25  C   UNL     1      32.203  77.001  21.003  1.00  0.00     0.190 C 
ATOM     26  C   UNL     1      33.531  75.451  19.128  1.00  0.00     0.161 C 
ATOM     27  O   UNL     1      31.632  76.886  19.682  1.00  0.00    -0.360 OA
ATOM     28  C   UNL     1      32.460  76.430  18.606  1.00  0.00     0.188 C 
ATOM     29  C   UNL     1      33.449  75.558  22.725  1.00  0.00     0.038 C 
ATOM     30  H   UNL     1      34.564  75.306  20.669  1.00  0.00     0.125 HD
ATOM     31  C   UNL     1      31.502  75.754  17.571  1.00  0.00     0.056 C 
BRANCH  26  32
ATOM     32  N   UNL     1      34.418  74.953  18.282  1.00  0.00    -0.313 NA
ATOM     33  H   UNL     1      33.938  74.348  17.600  1.00  0.00     0.120 HD
ATOM     34  H   UNL     1      34.890  75.722  17.787  1.00  0.00     0.120 HD
ENDBRANCH  26  32
BRANCH  28  35
ATOM     35  C   UNL     1      33.106  77.712  18.054  1.00  0.00     0.420 C 
ATOM     36  F   UNL     1      33.434  77.482  16.765  1.00  0.00    -0.168 F 
ATOM     37  F   UNL     1      32.169  78.701  18.079  1.00  0.00    -0.168 F 
ATOM     38  F   UNL     1      34.213  78.033  18.766  1.00  0.00    -0.168 F 
ENDBRANCH  28  35
ENDBRANCH   5  23
TORSDOF 6
ENDMDL
MODEL 5
REMARK VINA RESULT:    -8.886      4.313      8.422
REMARK INTER + INTRA:         -12.257
REMARK INTER:                 -11.369
REMARK INTRA:                  -0.888
REMARK UNBOUND:                -0.514
REMARK SMILES C[C@@]1(c2nc(NC(=O)c3ncc(C(F)(F)F)cc3Cl)ccc2F)CO[C@@](C)(C(F)(F)F)C(N)N1
REMARK SMILES IDX 5 1 20 2 21 3 22 4 3 5 4 6 23 7 6 8 7 9 8 10 9 12 18 13
REMARK SMILES IDX 17 14 12 15 10 16 11 17 19 18 13 19 14 20 15 21 16 22 2 23
REMARK SMILES IDX 34 24 24 25 32 26 25 27 26 28 1 29 27 31 33 32 28 35 29 36
REMARK SMILES IDX 30 37 31 38
REMARK H PARENT 6 11 34 30 33 33 33 34
ROOT
ATOM      1  C   UNL     1      30.899  75.386  16.454  1.00  0.00     0.133 A 
ATOM      2  C   UNL     1      31.601  76.295  15.630  1.00  0.00     0.050 A 
ATOM      3  C   UNL     1      31.808  77.583  16.115  1.00  0.00     0.045 A 
ATOM      4  C   UNL     1      31.315  77.924  17.365  1.00  0.00     0.146 A 
ATOM      5  C   UNL     1      30.544  77.002  18.125  1.00  0.00     0.101 A 
ATOM      6  N   UNL     1      30.378  75.775  17.609  1.00  0.00    -0.231 NA
ATOM      7  F   UNL     1      31.498  79.151  17.823  1.00  0.00    -0.205 F 
ENDROOT
BRANCH   1   8
ATOM      8  N   UNL     1      30.667  74.054  16.092  1.00  0.00    -0.305 N 
ATOM      9  C   UNL     1      31.378  72.976  16.433  1.00  0.00     0.276 C 
ATOM     10  O   UNL     1      32.443  72.993  17.044  1.00  0.00    -0.267 OA
ATOM     11  H   UNL     1      29.848  73.884  15.490  1.00  0.00     0.171 HD
BRANCH   9  12
ATOM     12  C   UNL     1      30.860  71.668  15.966  1.00  0.00     0.147 A 
ATOM     13  C   UNL     1      29.805  70.980  16.587  1.00  0.00     0.073 A 
ATOM     14  C   UNL     1      29.384  69.767  16.071  1.00  0.00     0.037 A 
ATOM     15  C   UNL     1      30.061  69.270  14.954  1.00  0.00     0.075 A 
ATOM     16  N   UNL     1      31.490  71.154  14.892  1.00  0.00    -0.249 NA
ATOM     17  C   UNL     1      31.100  69.984  14.385  1.00  0.00     0.125 A 
ATOM     18  Cl  UNL     1      28.959  71.647  17.978  1.00  0.00    -0.082 Cl
BRANCH  15  19
ATOM     19  C   UNL     1      29.673  67.954  14.357  1.00  0.00     0.417 C 
ATOM     20  F   UNL     1      28.888  67.278  15.198  1.00  0.00    -0.166 F 
ATOM     21  F   UNL     1      29.067  68.102  13.167  1.00  0.00    -0.166 F 
ATOM     22  F   UNL     1      30.790  67.219  14.230  1.00  0.00    -0.166 F 
ENDBRANCH  15  19
ENDBRANCH   9  12
ENDBRANCH   1   8
BRANCH   5  23
ATOM     23  C   UNL     1      29.918  77.316  19.490  1.00  0.00     0.086 C 
ATOM     24  N   UNL     1      28.978  76.250  19.852  1.00  0.00    -0.287 NA
ATOM     25  C   UNL     1      31.045  77.440  20.538  1.00  0.00     0.190 C 
ATOM     26  C   UNL     1      29.362  75.238  20.539  1.00  0.00     0.161 C 
ATOM     27  O   UNL     1      31.637  76.126  20.621  1.00  0.00    -0.360 OA
ATOM     28  C   UNL     1      30.815  75.018  21.005  1.00  0.00     0.188 C 
ATOM     29  C   UNL     1      29.091  78.632  19.371  1.00  0.00     0.038 C 
ATOM     30  H   UNL     1      28.219  76.697  20.387  1.00  0.00     0.125 HD
ATOM     31  C   UNL     1      31.456  73.749  20.352  1.00  0.00     0.056 C 
BRANCH  26  32
ATOM     32  N   UNL     1      28.444  74.334  20.838  1.00  0.00    -0.313 NA
ATOM     33  H   UNL     1      28.138  74.465  21.813  1.00  0.00     0.120 HD
ATOM     34  H   UNL     1      27.637  74.443  20.207  1.00  0.00     0.120 HD
ENDBRANCH  26  32
BRANCH  28  35
ATOM     35  C   UNL     1      30.904  74.992  22.540  1.00  0.00     0.420 C 
ATOM     36  F   UNL     1      32.206  75.101  22.876  1.00  0.00    -0.168 F 
ATOM     37  F   UNL     1      30.253  76.090  23.018  1.00  0.00    -0.168 F 
ATOM     38  F   UNL     1      30.392  73.837  23.029  1.00  0.00    -0.168 F 
ENDBRANCH  28  35
ENDBRANCH   5  23
TORSDOF 6
ENDMDL
MODEL 6
REMARK VINA RESULT:    -8.524      5.559      7.746
REMARK INTER + INTRA:         -11.779
REMARK INTER:                 -10.808
REMARK INTRA:                  -0.971
REMARK UNBOUND:                -0.514
REMARK SMILES C[C@@]1(c2nc(NC(=O)c3ncc(C(F)(F)F)cc3Cl)ccc2F)CO[C@@](C)(C(F)(F)F)C(N)N1
REMARK SMILES IDX 5 1 20 2 21 3 22 4 3 5 4 6 23 7 6 8 7 9 8 10 9 12 18 13
REMARK SMILES IDX 17 14 12 15 10 16 11 17 19 18 13 19 14 20 15 21 16 22 2 23
REMARK SMILES IDX 34 24 24 25 32 26 25 27 26 28 1 29 27 31 33 32 28 35 29 36
REMARK SMILES IDX 30 37 31 38
REMARK H PARENT 6 11 34 30 33 33 33 34
ROOT
ATOM      1  C   UNL     1      33.481  73.519  16.522  1.00  0.00     0.133 A 
ATOM      2  C   UNL     1      34.296  74.112  15.532  1.00  0.00     0.050 A 
ATOM      3  C   UNL     1      34.744  73.305  14.491  1.00  0.00     0.045 A 
ATOM      4  C   UNL     1      34.388  71.966  14.470  1.00  0.00     0.146 A 
ATOM      5  C   UNL     1      33.633  71.392  15.530  1.00  0.00     0.101 A 
ATOM      6  N   UNL     1      33.228  72.217  16.506  1.00  0.00    -0.231 NA
ATOM      7  F   UNL     1      34.823  71.193  13.489  1.00  0.00    -0.205 F 
ENDROOT
BRANCH   1   8
ATOM      8  N   UNL     1      32.937  74.238  17.593  1.00  0.00    -0.305 N 
ATOM      9  C   UNL     1      33.548  74.621  18.717  1.00  0.00     0.276 C 
ATOM     10  O   UNL     1      34.686  74.300  19.051  1.00  0.00    -0.267 OA
ATOM     11  H   UNL     1      31.946  74.504  17.503  1.00  0.00     0.171 HD
BRANCH   9  12
ATOM     12  C   UNL     1      32.748  75.441  19.657  1.00  0.00     0.147 A 
ATOM     13  C   UNL     1      31.679  74.938  20.416  1.00  0.00     0.073 A 
ATOM     14  C   UNL     1      30.997  75.780  21.276  1.00  0.00     0.037 A 
ATOM     15  C   UNL     1      31.399  77.118  21.324  1.00  0.00     0.075 A 
ATOM     16  N   UNL     1      33.104  76.738  19.729  1.00  0.00    -0.249 NA
ATOM     17  C   UNL     1      32.453  77.565  20.550  1.00  0.00     0.125 A 
ATOM     18  Cl  UNL     1      31.214  73.243  20.348  1.00  0.00    -0.082 Cl
BRANCH  15  19
ATOM     19  C   UNL     1      30.691  78.090  22.216  1.00  0.00     0.417 C 
ATOM     20  F   UNL     1      29.394  78.138  21.910  1.00  0.00    -0.166 F 
ATOM     21  F   UNL     1      30.856  77.790  23.515  1.00  0.00    -0.166 F 
ATOM     22  F   UNL     1      31.175  79.314  21.949  1.00  0.00    -0.166 F 
ENDBRANCH  15  19
ENDBRANCH   9  12
ENDBRANCH   1   8
BRANCH   5  23
ATOM     23  C   UNL     1      33.243  69.910  15.612  1.00  0.00     0.086 C 
ATOM     24  N   UNL     1      32.614  69.642  16.908  1.00  0.00    -0.287 NA
ATOM     25  C   UNL     1      32.279  69.585  14.450  1.00  0.00     0.190 C 
ATOM     26  C   UNL     1      31.343  69.729  17.054  1.00  0.00     0.161 C 
ATOM     27  O   UNL     1      31.092  70.363  14.707  1.00  0.00    -0.360 OA
ATOM     28  C   UNL     1      30.376  70.153  15.930  1.00  0.00     0.188 C 
ATOM     29  C   UNL     1      34.540  69.047  15.547  1.00  0.00     0.038 C 
ATOM     30  H   UNL     1      32.874  68.679  17.167  1.00  0.00     0.125 HD
ATOM     31  C   UNL     1      29.654  71.501  16.255  1.00  0.00     0.056 C 
BRANCH  26  32
ATOM     32  N   UNL     1      30.857  69.450  18.253  1.00  0.00    -0.313 NA
ATOM     33  H   UNL     1      30.915  70.288  18.849  1.00  0.00     0.120 HD
ATOM     34  H   UNL     1      29.874  69.158  18.165  1.00  0.00     0.120 HD
ENDBRANCH  26  32
BRANCH  28  35
ATOM     35  C   UNL     1      29.384  69.024  15.601  1.00  0.00     0.420 C 
ATOM     36  F   UNL     1      28.283  69.214  16.357  1.00  0.00    -0.168 F 
ATOM     37  F   UNL     1      29.024  69.149  14.293  1.00  0.00    -0.168 F 
ATOM     38  F   UNL     1      29.932  67.814  15.871  1.00  0.00    -0.168 F 
ENDBRANCH  28  35
ENDBRANCH   5  23
TORSDOF 6
ENDMDL
MODEL 7
REMARK VINA RESULT:    -8.232      4.839      8.708
REMARK INTER + INTRA:         -11.393
REMARK INTER:                 -10.663
REMARK INTRA:                  -0.730
REMARK UNBOUND:                -0.514
REMARK SMILES C[C@@]1(c2nc(NC(=O)c3ncc(C(F)(F)F)cc3Cl)ccc2F)CO[C@@](C)(C(F)(F)F)C(N)N1
REMARK SMILES IDX 5 1 20 2 21 3 22 4 3 5 4 6 23 7 6 8 7 9 8 10 9 12 18 13
REMARK SMILES IDX 17 14 12 15 10 16 11 17 19 18 13 19 14 20 15 21 16 22 2 23
REMARK SMILES IDX 34 24 24 25 32 26 25 27 26 28 1 29 27 31 33 32 28 35 29 36
REMARK SMILES IDX 30 37 31 38
REMARK H PARENT 6 11 34 30 33 33 33 34
ROOT
ATOM      1  C   UNL     1      30.848  75.560  16.291  1.00  0.00     0.133 A 
ATOM      2  C   UNL     1      30.192  76.488  15.451  1.00  0.00     0.050 A 
ATOM      3  C   UNL     1      30.380  77.843  15.709  1.00  0.00     0.045 A 
ATOM      4  C   UNL     1      31.183  78.226  16.772  1.00  0.00     0.146 A 
ATOM      5  C   UNL     1      31.759  77.258  17.641  1.00  0.00     0.101 A 
ATOM      6  N   UNL     1      31.545  75.968  17.344  1.00  0.00    -0.231 NA
ATOM      7  F   UNL     1      31.353  79.512  17.028  1.00  0.00    -0.205 F 
ENDROOT
BRANCH   1   8
ATOM      8  N   UNL     1      30.769  74.175  16.106  1.00  0.00    -0.305 N 
ATOM      9  C   UNL     1      29.886  73.326  16.638  1.00  0.00     0.276 C 
ATOM     10  O   UNL     1      29.047  73.616  17.487  1.00  0.00    -0.267 OA
ATOM     11  H   UNL     1      31.476  73.760  15.483  1.00  0.00     0.171 HD
BRANCH   9  12
ATOM     12  C   UNL     1      29.989  71.911  16.210  1.00  0.00     0.147 A 
ATOM     13  C   UNL     1      30.637  70.915  16.958  1.00  0.00     0.073 A 
ATOM     14  C   UNL     1      30.672  69.617  16.479  1.00  0.00     0.037 A 
ATOM     15  C   UNL     1      30.073  69.368  15.241  1.00  0.00     0.075 A 
ATOM     16  N   UNL     1      29.426  71.633  15.018  1.00  0.00    -0.249 NA
ATOM     17  C   UNL     1      29.456  70.388  14.540  1.00  0.00     0.125 A 
ATOM     18  Cl  UNL     1      31.360  71.258  18.524  1.00  0.00    -0.082 Cl
BRANCH  15  19
ATOM     19  C   UNL     1      30.093  67.992  14.653  1.00  0.00     0.417 C 
ATOM     20  F   UNL     1      29.849  68.045  13.343  1.00  0.00    -0.166 F 
ATOM     21  F   UNL     1      31.257  67.363  14.888  1.00  0.00    -0.166 F 
ATOM     22  F   UNL     1      29.070  67.306  15.187  1.00  0.00    -0.166 F 
ENDBRANCH  15  19
ENDBRANCH   9  12
ENDBRANCH   1   8
BRANCH   5  23
ATOM     23  C   UNL     1      32.614  77.597  18.869  1.00  0.00     0.086 C 
ATOM     24  N   UNL     1      31.861  78.488  19.757  1.00  0.00    -0.287 NA
ATOM     25  C   UNL     1      32.991  76.285  19.590  1.00  0.00     0.190 C 
ATOM     26  C   UNL     1      31.135  78.016  20.702  1.00  0.00     0.161 C 
ATOM     27  O   UNL     1      31.743  75.737  20.065  1.00  0.00    -0.360 OA
ATOM     28  C   UNL     1      30.946  76.509  20.970  1.00  0.00     0.188 C 
ATOM     29  C   UNL     1      33.875  78.382  18.398  1.00  0.00     0.038 C 
ATOM     30  H   UNL     1      32.551  79.112  20.200  1.00  0.00     0.125 HD
ATOM     31  C   UNL     1      29.466  76.055  20.750  1.00  0.00     0.056 C 
BRANCH  26  32
ATOM     32  N   UNL     1      30.506  78.892  21.468  1.00  0.00    -0.313 NA
ATOM     33  H   UNL     1      31.116  79.706  21.631  1.00  0.00     0.120 HD
ATOM     34  H   UNL     1      29.641  79.198  21.001  1.00  0.00     0.120 HD
ENDBRANCH  26  32
BRANCH  28  35
ATOM     35  C   UNL     1      31.474  76.127  22.363  1.00  0.00     0.420 C 
ATOM     36  F   UNL     1      32.494  76.959  22.657  1.00  0.00    -0.168 F 
ATOM     37  F   UNL     1      30.477  76.348  23.267  1.00  0.00    -0.168 F 
ATOM     38  F   UNL     1      31.903  74.842  22.375  1.00  0.00    -0.168 F 
ENDBRANCH  28  35
ENDBRANCH   5  23
TORSDOF 6
ENDMDL
MODEL 8
REMARK VINA RESULT:    -8.175      3.533      5.058
REMARK INTER + INTRA:         -11.318
REMARK INTER:                 -10.307
REMARK INTRA:                  -1.011
REMARK UNBOUND:                -0.514
REMARK SMILES C[C@@]1(c2nc(NC(=O)c3ncc(C(F)(F)F)cc3Cl)ccc2F)CO[C@@](C)(C(F)(F)F)C(N)N1
REMARK SMILES IDX 5 1 20 2 21 3 22 4 3 5 4 6 23 7 6 8 7 9 8 10 9 12 18 13
REMARK SMILES IDX 17 14 12 15 10 16 11 17 19 18 13 19 14 20 15 21 16 22 2 23
REMARK SMILES IDX 34 24 24 25 32 26 25 27 26 28 1 29 27 31 33 32 28 35 29 36
REMARK SMILES IDX 30 37 31 38
REMARK H PARENT 6 11 34 30 33 33 33 34
ROOT
ATOM      1  C   UNL     1      29.193  73.607  19.537  1.00  0.00     0.133 A 
ATOM      2  C   UNL     1      28.998  73.002  20.799  1.00  0.00     0.050 A 
ATOM      3  C   UNL     1      29.047  71.612  20.867  1.00  0.00     0.045 A 
ATOM      4  C   UNL     1      29.272  70.885  19.709  1.00  0.00     0.146 A 
ATOM      5  C   UNL     1      29.381  71.531  18.447  1.00  0.00     0.101 A 
ATOM      6  N   UNL     1      29.327  72.871  18.441  1.00  0.00    -0.231 NA
ATOM      7  F   UNL     1      29.305  69.564  19.768  1.00  0.00    -0.205 F 
ENDROOT
BRANCH   1   8
ATOM      8  N   UNL     1      29.206  74.994  19.351  1.00  0.00    -0.305 N 
ATOM      9  C   UNL     1      30.201  75.846  19.612  1.00  0.00     0.276 C 
ATOM     10  O   UNL     1      31.253  75.557  20.175  1.00  0.00    -0.267 OA
ATOM     11  H   UNL     1      28.345  75.408  18.967  1.00  0.00     0.171 HD
BRANCH   9  12
ATOM     12  C   UNL     1      29.968  77.264  19.247  1.00  0.00     0.147 A 
ATOM     13  C   UNL     1      29.390  78.207  20.112  1.00  0.00     0.073 A 
ATOM     14  C   UNL     1      29.223  79.513  19.685  1.00  0.00     0.037 A 
ATOM     15  C   UNL     1      29.621  79.822  18.381  1.00  0.00     0.075 A 
ATOM     16  N   UNL     1      30.336  77.600  17.996  1.00  0.00    -0.249 NA
ATOM     17  C   UNL     1      30.177  78.853  17.566  1.00  0.00     0.125 A 
ATOM     18  Cl  UNL     1      28.922  77.790  21.756  1.00  0.00    -0.082 Cl
BRANCH  15  19
ATOM     19  C   UNL     1      29.449  81.209  17.846  1.00  0.00     0.417 C 
ATOM     20  F   UNL     1      29.113  81.168  16.556  1.00  0.00    -0.166 F 
ATOM     21  F   UNL     1      28.540  81.907  18.546  1.00  0.00    -0.166 F 
ATOM     22  F   UNL     1      30.647  81.814  17.892  1.00  0.00    -0.166 F 
ENDBRANCH  15  19
ENDBRANCH   9  12
ENDBRANCH   1   8
BRANCH   5  23
ATOM     23  C   UNL     1      29.575  70.799  17.113  1.00  0.00     0.086 C 
ATOM     24  N   UNL     1      29.586  71.774  16.018  1.00  0.00    -0.287 NA
ATOM     25  C   UNL     1      30.901  70.010  17.167  1.00  0.00     0.190 C 
ATOM     26  C   UNL     1      30.685  72.292  15.609  1.00  0.00     0.161 C 
ATOM     27  O   UNL     1      31.937  71.009  17.270  1.00  0.00    -0.360 OA
ATOM     28  C   UNL     1      32.062  71.989  16.233  1.00  0.00     0.188 C 
ATOM     29  C   UNL     1      28.353  69.860  16.876  1.00  0.00     0.038 C 
ATOM     30  H   UNL     1      29.161  71.306  15.204  1.00  0.00     0.125 HD
ATOM     31  C   UNL     1      32.697  73.254  16.897  1.00  0.00     0.056 C 
BRANCH  26  32
ATOM     32  N   UNL     1      30.605  73.147  14.603  1.00  0.00    -0.313 NA
ATOM     33  H   UNL     1      29.725  73.677  14.673  1.00  0.00     0.120 HD
ATOM     34  H   UNL     1      31.403  73.798  14.643  1.00  0.00     0.120 HD
ENDBRANCH  26  32
BRANCH  28  35
ATOM     35  C   UNL     1      33.001  71.336  15.205  1.00  0.00     0.420 C 
ATOM     36  F   UNL     1      33.915  70.614  15.886  1.00  0.00    -0.168 F 
ATOM     37  F   UNL     1      32.264  70.475  14.448  1.00  0.00    -0.168 F 
ATOM     38  F   UNL     1      33.620  72.280  14.455  1.00  0.00    -0.168 F 
ENDBRANCH  28  35
ENDBRANCH   5  23
TORSDOF 6
ENDMDL
MODEL 9
REMARK VINA RESULT:    -8.152      4.290      8.145
REMARK INTER + INTRA:         -11.286
REMARK INTER:                 -10.566
REMARK INTRA:                  -0.721
REMARK UNBOUND:                -0.514
REMARK SMILES C[C@@]1(c2nc(NC(=O)c3ncc(C(F)(F)F)cc3Cl)ccc2F)CO[C@@](C)(C(F)(F)F)C(N)N1
REMARK SMILES IDX 5 1 20 2 21 3 22 4 3 5 4 6 23 7 6 8 7 9 8 10 9 12 18 13
REMARK SMILES IDX 17 14 12 15 10 16 11 17 19 18 13 19 14 20 15 21 16 22 2 23
REMARK SMILES IDX 34 24 24 25 32 26 25 27 26 28 1 29 27 31 33 32 28 35 29 36
REMARK SMILES IDX 30 37 31 38
REMARK H PARENT 6 11 34 30 33 33 33 34
ROOT
ATOM      1  C   UNL     1      30.347  74.264  20.448  1.00  0.00     0.133 A 
ATOM      2  C   UNL     1      30.635  73.950  21.795  1.00  0.00     0.050 A 
ATOM      3  C   UNL     1      30.670  74.997  22.713  1.00  0.00     0.045 A 
ATOM      4  C   UNL     1      30.436  76.290  22.274  1.00  0.00     0.146 A 
ATOM      5  C   UNL     1      30.231  76.571  20.895  1.00  0.00     0.101 A 
ATOM      6  N   UNL     1      30.206  75.524  20.057  1.00  0.00    -0.231 NA
ATOM      7  F   UNL     1      30.482  77.289  23.140  1.00  0.00    -0.205 F 
ENDROOT
BRANCH   1   8
ATOM      8  N   UNL     1      30.244  73.293  19.445  1.00  0.00    -0.305 N 
ATOM      9  C   UNL     1      29.163  72.961  18.735  1.00  0.00     0.276 C 
ATOM     10  O   UNL     1      28.028  73.387  18.928  1.00  0.00    -0.267 OA
ATOM     11  H   UNL     1      31.106  72.773  19.229  1.00  0.00     0.171 HD
BRANCH   9  12
ATOM     12  C   UNL     1      29.356  71.940  17.677  1.00  0.00     0.147 A 
ATOM     13  C   UNL     1      30.037  72.184  16.473  1.00  0.00     0.073 A 
ATOM     14  C   UNL     1      30.175  71.163  15.549  1.00  0.00     0.037 A 
ATOM     15  C   UNL     1      29.597  69.929  15.858  1.00  0.00     0.075 A 
ATOM     16  N   UNL     1      28.809  70.737  17.937  1.00  0.00    -0.249 NA
ATOM     17  C   UNL     1      28.929  69.744  17.055  1.00  0.00     0.125 A 
ATOM     18  Cl  UNL     1      30.774  73.743  16.127  1.00  0.00    -0.082 Cl
BRANCH  15  19
ATOM     19  C   UNL     1      29.689  68.787  14.895  1.00  0.00     0.417 C 
ATOM     20  F   UNL     1      30.965  68.518  14.618  1.00  0.00    -0.166 F 
ATOM     21  F   UNL     1      29.068  67.689  15.358  1.00  0.00    -0.166 F 
ATOM     22  F   UNL     1      29.140  69.187  13.736  1.00  0.00    -0.166 F 
ENDBRANCH  15  19
ENDBRANCH   9  12
ENDBRANCH   1   8
BRANCH   5  23
ATOM     23  C   UNL     1      30.019  77.977  20.319  1.00  0.00     0.086 C 
ATOM     24  N   UNL     1      31.019  78.890  20.882  1.00  0.00    -0.287 NA
ATOM     25  C   UNL     1      30.135  77.907  18.781  1.00  0.00     0.190 C 
ATOM     26  C   UNL     1      32.139  79.086  20.289  1.00  0.00     0.161 C 
ATOM     27  O   UNL     1      31.503  77.529  18.516  1.00  0.00    -0.360 OA
ATOM     28  C   UNL     1      32.559  78.373  18.988  1.00  0.00     0.188 C 
ATOM     29  C   UNL     1      28.621  78.497  20.771  1.00  0.00     0.038 C 
ATOM     30  H   UNL     1      30.563  79.811  20.960  1.00  0.00     0.125 HD
ATOM     31  C   UNL     1      33.800  77.446  19.201  1.00  0.00     0.056 C 
BRANCH  26  32
ATOM     32  N   UNL     1      32.974  79.942  20.855  1.00  0.00    -0.313 NA
ATOM     33  H   UNL     1      33.853  79.968  20.320  1.00  0.00     0.120 HD
ATOM     34  H   UNL     1      32.549  80.880  20.866  1.00  0.00     0.120 HD
ENDBRANCH  26  32
BRANCH  28  35
ATOM     35  C   UNL     1      32.775  79.385  17.850  1.00  0.00     0.420 C 
ATOM     36  F   UNL     1      34.067  79.771  17.885  1.00  0.00    -0.168 F 
ATOM     37  F   UNL     1      32.561  78.741  16.668  1.00  0.00    -0.168 F 
ATOM     38  F   UNL     1      31.963  80.459  18.005  1.00  0.00    -0.168 F 
ENDBRANCH  28  35
ENDBRANCH   5  23
TORSDOF 6
ENDMDL
