MODEL 1
REMARK VINA RESULT:    -6.181      0.000      0.000
REMARK INTER + INTRA:         -12.585
REMARK INTER:                 -10.879
REMARK INTRA:                  -1.705
REMARK UNBOUND:                -1.705
REMARK SMILES O=C(CCCc1ccc(N(CCCl)CCCl)cc1)OCCN1C(=O)C=CC1=O
REMARK SMILES IDX 4 1 5 2 6 3 9 4 8 5 17 6 7 7 18 8 10 9 11 10 12 11 13 12
REMARK SMILES IDX 14 13 15 14 16 15 3 16 2 17 1 18 19 19 20 20 21 21 22 22
REMARK SMILES IDX 23 23 27 24 24 25 25 26 28 27 26 28
REMARK H PARENT
ROOT
ATOM      1  C   UNL     1      29.696  70.892  19.089  1.00  0.00     0.016 C 
ENDROOT
BRANCH   1   2
ATOM      2  C   UNL     1      29.227  71.304  20.492  1.00  0.00     0.036 C 
BRANCH   2   3
ATOM      3  C   UNL     1      29.816  72.596  20.996  1.00  0.00    -0.048 A 
ATOM      4  C   UNL     1      30.908  74.989  21.928  1.00  0.00     0.037 A 
ATOM      5  C   UNL     1      29.939  74.325  22.680  1.00  0.00     0.026 A 
ATOM      6  C   UNL     1      31.332  74.457  20.711  1.00  0.00     0.026 A 
ATOM      7  C   UNL     1      29.393  73.128  22.214  1.00  0.00     0.006 A 
ATOM      8  C   UNL     1      30.786  73.261  20.244  1.00  0.00     0.006 A 
BRANCH   4   9
ATOM      9  N   UNL     1      31.459  76.198  22.400  1.00  0.00    -0.369 N 
BRANCH   9  10
ATOM     10  C   UNL     1      30.594  77.282  22.826  1.00  0.00     0.132 C 
BRANCH  10  11
ATOM     11  C   UNL     1      29.553  77.597  21.765  1.00  0.00     0.131 C 
ATOM     12  Cl  UNL     1      30.112  78.879  20.664  1.00  0.00    -0.125 Cl
ENDBRANCH  10  11
ENDBRANCH   9  10
BRANCH   9  13
ATOM     13  C   UNL     1      32.896  76.370  22.480  1.00  0.00     0.132 C 
BRANCH  13  14
ATOM     14  C   UNL     1      33.317  77.716  21.911  1.00  0.00     0.131 C 
ATOM     15  Cl  UNL     1      33.455  77.658  20.137  1.00  0.00    -0.125 Cl
ENDBRANCH  13  14
ENDBRANCH   9  13
ENDBRANCH   4   9
ENDBRANCH   2   3
ENDBRANCH   1   2
BRANCH   1  16
ATOM     16  C   UNL     1      29.973  69.394  18.942  1.00  0.00     0.123 C 
BRANCH  16  17
ATOM     17  C   UNL     1      29.856  68.909  17.516  1.00  0.00     0.305 C 
ATOM     18  O   UNL     1      30.399  67.902  17.080  1.00  0.00    -0.252 OA
BRANCH  17  19
ATOM     19  O   UNL     1      29.035  69.743  16.813  1.00  0.00    -0.464 OA
BRANCH  19  20
ATOM     20  C   UNL     1      29.172  69.687  15.390  1.00  0.00     0.255 C 
BRANCH  20  21
ATOM     21  C   UNL     1      29.371  71.089  14.846  1.00  0.00     0.171 C 
BRANCH  21  22
ATOM     22  N   UNL     1      30.525  71.722  15.427  1.00  0.00    -0.272 N 
ATOM     23  C   UNL     1      30.486  72.811  16.267  1.00  0.00     0.253 C 
ATOM     24  C   UNL     1      31.825  71.324  15.224  1.00  0.00     0.253 C 
ATOM     25  O   UNL     1      29.524  73.439  16.672  1.00  0.00    -0.269 OA
ATOM     26  C   UNL     1      31.881  73.119  16.621  1.00  0.00     0.077 C 
ATOM     27  O   UNL     1      32.260  70.408  14.546  1.00  0.00    -0.269 OA
ATOM     28  C   UNL     1      32.672  72.240  16.005  1.00  0.00     0.077 C 
ENDBRANCH  21  22
ENDBRANCH  20  21
ENDBRANCH  19  20
ENDBRANCH  17  19
ENDBRANCH  16  17
ENDBRANCH   1  16
TORSDOF 13
ENDMDL
MODEL 2
REMARK VINA RESULT:    -6.123      4.195      7.654
REMARK INTER + INTRA:         -12.481
REMARK INTER:                 -10.399
REMARK INTRA:                  -2.082
REMARK UNBOUND:                -1.705
REMARK SMILES O=C(CCCc1ccc(N(CCCl)CCCl)cc1)OCCN1C(=O)C=CC1=O
REMARK SMILES IDX 4 1 5 2 6 3 9 4 8 5 17 6 7 7 18 8 10 9 11 10 12 11 13 12
REMARK SMILES IDX 14 13 15 14 16 15 3 16 2 17 1 18 19 19 20 20 21 21 22 22
REMARK SMILES IDX 23 23 27 24 24 25 25 26 28 27 26 28
REMARK H PARENT
ROOT
ATOM      1  C   UNL     1      30.470  75.248  22.501  1.00  0.00     0.016 C 
ENDROOT
BRANCH   1   2
ATOM      2  C   UNL     1      31.629  74.782  21.607  1.00  0.00     0.036 C 
BRANCH   2   3
ATOM      3  C   UNL     1      31.273  73.681  20.642  1.00  0.00    -0.048 A 
ATOM      4  C   UNL     1      30.613  71.643  18.856  1.00  0.00     0.037 A 
ATOM      5  C   UNL     1      31.714  72.460  18.604  1.00  0.00     0.026 A 
ATOM      6  C   UNL     1      29.841  71.844  20.000  1.00  0.00     0.026 A 
ATOM      7  C   UNL     1      32.044  73.480  19.498  1.00  0.00     0.006 A 
ATOM      8  C   UNL     1      30.170  72.863  20.893  1.00  0.00     0.006 A 
BRANCH   4   9
ATOM      9  N   UNL     1      30.280  70.612  17.951  1.00  0.00    -0.369 N 
BRANCH   9  10
ATOM     10  C   UNL     1      31.278  69.640  17.548  1.00  0.00     0.132 C 
BRANCH  10  11
ATOM     11  C   UNL     1      31.611  68.694  18.691  1.00  0.00     0.131 C 
ATOM     12  Cl  UNL     1      30.137  68.088  19.484  1.00  0.00    -0.125 Cl
ENDBRANCH  10  11
ENDBRANCH   9  10
BRANCH   9  13
ATOM     13  C   UNL     1      28.935  70.503  17.425  1.00  0.00     0.132 C 
BRANCH  13  14
ATOM     14  C   UNL     1      28.905  69.627  16.182  1.00  0.00     0.131 C 
ATOM     15  Cl  UNL     1      28.711  70.601  14.704  1.00  0.00    -0.125 Cl
ENDBRANCH  13  14
ENDBRANCH   9  13
ENDBRANCH   4   9
ENDBRANCH   2   3
ENDBRANCH   1   2
BRANCH   1  16
ATOM     16  C   UNL     1      29.900  76.615  22.115  1.00  0.00     0.123 C 
BRANCH  16  17
ATOM     17  C   UNL     1      28.712  76.519  21.186  1.00  0.00     0.305 C 
ATOM     18  O   UNL     1      27.923  75.583  21.166  1.00  0.00    -0.252 OA
BRANCH  17  19
ATOM     19  O   UNL     1      28.646  77.638  20.408  1.00  0.00    -0.464 OA
BRANCH  19  20
ATOM     20  C   UNL     1      29.414  78.755  20.867  1.00  0.00     0.255 C 
BRANCH  20  21
ATOM     21  C   UNL     1      30.326  79.232  19.753  1.00  0.00     0.171 C 
BRANCH  21  22
ATOM     22  N   UNL     1      31.574  78.518  19.750  1.00  0.00    -0.272 N 
ATOM     23  C   UNL     1      32.670  78.844  20.516  1.00  0.00     0.253 C 
ATOM     24  C   UNL     1      31.845  77.411  18.981  1.00  0.00     0.253 C 
ATOM     25  O   UNL     1      32.811  79.756  21.312  1.00  0.00    -0.269 OA
ATOM     26  C   UNL     1      33.713  77.855  20.201  1.00  0.00     0.077 C 
ATOM     27  O   UNL     1      31.132  76.829  18.179  1.00  0.00    -0.269 OA
ATOM     28  C   UNL     1      33.225  77.008  19.293  1.00  0.00     0.077 C 
ENDBRANCH  21  22
ENDBRANCH  20  21
ENDBRANCH  19  20
ENDBRANCH  17  19
ENDBRANCH  16  17
ENDBRANCH   1  16
TORSDOF 13
ENDMDL
MODEL 3
REMARK VINA RESULT:    -6.117      1.167      2.827
REMARK INTER + INTRA:         -12.472
REMARK INTER:                 -10.904
REMARK INTRA:                  -1.568
REMARK UNBOUND:                -1.705
REMARK SMILES O=C(CCCc1ccc(N(CCCl)CCCl)cc1)OCCN1C(=O)C=CC1=O
REMARK SMILES IDX 4 1 5 2 6 3 9 4 8 5 17 6 7 7 18 8 10 9 11 10 12 11 13 12
REMARK SMILES IDX 14 13 15 14 16 15 3 16 2 17 1 18 19 19 20 20 21 21 22 22
REMARK SMILES IDX 23 23 27 24 24 25 25 26 28 27 26 28
REMARK H PARENT
ROOT
ATOM      1  C   UNL     1      29.514  70.707  18.960  1.00  0.00     0.016 C 
ENDROOT
BRANCH   1   2
ATOM      2  C   UNL     1      29.102  71.073  20.394  1.00  0.00     0.036 C 
BRANCH   2   3
ATOM      3  C   UNL     1      29.708  72.351  20.913  1.00  0.00    -0.048 A 
ATOM      4  C   UNL     1      30.831  74.717  21.874  1.00  0.00     0.037 A 
ATOM      5  C   UNL     1      29.803  74.096  22.582  1.00  0.00     0.026 A 
ATOM      6  C   UNL     1      31.298  74.156  20.686  1.00  0.00     0.026 A 
ATOM      7  C   UNL     1      29.241  72.912  22.101  1.00  0.00     0.006 A 
ATOM      8  C   UNL     1      30.737  72.973  20.205  1.00  0.00     0.006 A 
BRANCH   4   9
ATOM      9  N   UNL     1      31.398  75.914  22.361  1.00  0.00    -0.369 N 
BRANCH   9  10
ATOM     10  C   UNL     1      32.836  76.038  22.507  1.00  0.00     0.132 C 
BRANCH  10  11
ATOM     11  C   UNL     1      33.319  77.394  22.018  1.00  0.00     0.131 C 
ATOM     12  Cl  UNL     1      33.175  77.537  20.249  1.00  0.00    -0.125 Cl
ENDBRANCH  10  11
ENDBRANCH   9  10
BRANCH   9  13
ATOM     13  C   UNL     1      30.554  77.039  22.708  1.00  0.00     0.132 C 
BRANCH  13  14
ATOM     14  C   UNL     1      29.605  77.381  21.569  1.00  0.00     0.131 C 
ATOM     15  Cl  UNL     1      29.709  79.105  21.132  1.00  0.00    -0.125 Cl
ENDBRANCH  13  14
ENDBRANCH   9  13
ENDBRANCH   4   9
ENDBRANCH   2   3
ENDBRANCH   1   2
BRANCH   1  16
ATOM     16  C   UNL     1      30.059  69.284  18.815  1.00  0.00     0.123 C 
BRANCH  16  17
ATOM     17  C   UNL     1      31.520  69.248  18.430  1.00  0.00     0.305 C 
ATOM     18  O   UNL     1      32.221  68.245  18.467  1.00  0.00    -0.252 OA
BRANCH  17  19
ATOM     19  O   UNL     1      31.915  70.485  18.013  1.00  0.00    -0.464 OA
BRANCH  19  20
ATOM     20  C   UNL     1      32.997  70.504  17.076  1.00  0.00     0.255 C 
BRANCH  20  21
ATOM     21  C   UNL     1      32.545  71.185  15.797  1.00  0.00     0.171 C 
BRANCH  21  22
ATOM     22  N   UNL     1      31.270  70.688  15.356  1.00  0.00    -0.272 N 
ATOM     23  C   UNL     1      31.053  69.437  14.826  1.00  0.00     0.253 C 
ATOM     24  C   UNL     1      30.091  71.394  15.404  1.00  0.00     0.253 C 
ATOM     25  O   UNL     1      31.849  68.535  14.625  1.00  0.00    -0.269 OA
ATOM     26  C   UNL     1      29.617  69.353  14.519  1.00  0.00     0.077 C 
ATOM     27  O   UNL     1      29.881  72.528  15.802  1.00  0.00    -0.269 OA
ATOM     28  C   UNL     1      29.048  70.510  14.861  1.00  0.00     0.077 C 
ENDBRANCH  21  22
ENDBRANCH  20  21
ENDBRANCH  19  20
ENDBRANCH  17  19
ENDBRANCH  16  17
ENDBRANCH   1  16
TORSDOF 13
ENDMDL
MODEL 4
REMARK VINA RESULT:    -6.114      1.862      2.699
REMARK INTER + INTRA:         -12.467
REMARK INTER:                 -11.191
REMARK INTRA:                  -1.275
REMARK UNBOUND:                -1.705
REMARK SMILES O=C(CCCc1ccc(N(CCCl)CCCl)cc1)OCCN1C(=O)C=CC1=O
REMARK SMILES IDX 4 1 5 2 6 3 9 4 8 5 17 6 7 7 18 8 10 9 11 10 12 11 13 12
REMARK SMILES IDX 14 13 15 14 16 15 3 16 2 17 1 18 19 19 20 20 21 21 22 22
REMARK SMILES IDX 23 23 27 24 24 25 25 26 28 27 26 28
REMARK H PARENT
ROOT
ATOM      1  C   UNL     1      29.859  70.420  18.809  1.00  0.00     0.016 C 
ENDROOT
BRANCH   1   2
ATOM      2  C   UNL     1      29.181  70.940  20.085  1.00  0.00     0.036 C 
BRANCH   2   3
ATOM      3  C   UNL     1      29.776  72.209  20.639  1.00  0.00    -0.048 A 
ATOM      4  C   UNL     1      30.879  74.558  21.664  1.00  0.00     0.037 A 
ATOM      5  C   UNL     1      29.841  73.921  22.343  1.00  0.00     0.026 A 
ATOM      6  C   UNL     1      31.365  74.022  20.472  1.00  0.00     0.026 A 
ATOM      7  C   UNL     1      29.290  72.746  21.831  1.00  0.00     0.006 A 
ATOM      8  C   UNL     1      30.814  72.847  19.959  1.00  0.00     0.006 A 
BRANCH   4   9
ATOM      9  N   UNL     1      31.435  75.746  22.183  1.00  0.00    -0.369 N 
BRANCH   9  10
ATOM     10  C   UNL     1      30.577  76.786  22.717  1.00  0.00     0.132 C 
BRANCH  10  11
ATOM     11  C   UNL     1      29.560  77.238  21.681  1.00  0.00     0.131 C 
ATOM     12  Cl  UNL     1      30.351  77.749  20.171  1.00  0.00    -0.125 Cl
ENDBRANCH  10  11
ENDBRANCH   9  10
BRANCH   9  13
ATOM     13  C   UNL     1      32.871  75.937  22.202  1.00  0.00     0.132 C 
BRANCH  13  14
ATOM     14  C   UNL     1      33.224  77.402  22.408  1.00  0.00     0.131 C 
ATOM     15  Cl  UNL     1      33.774  78.157  20.891  1.00  0.00    -0.125 Cl
ENDBRANCH  13  14
ENDBRANCH   9  13
ENDBRANCH   4   9
ENDBRANCH   2   3
ENDBRANCH   1   2
BRANCH   1  16
ATOM     16  C   UNL     1      29.748  68.906  18.620  1.00  0.00     0.123 C 
BRANCH  16  17
ATOM     17  C   UNL     1      31.074  68.195  18.761  1.00  0.00     0.305 C 
ATOM     18  O   UNL     1      31.246  67.173  19.415  1.00  0.00    -0.252 OA
BRANCH  17  19
ATOM     19  O   UNL     1      32.024  68.846  18.030  1.00  0.00    -0.464 OA
BRANCH  19  20
ATOM     20  C   UNL     1      32.924  68.006  17.301  1.00  0.00     0.255 C 
BRANCH  20  21
ATOM     21  C   UNL     1      32.935  68.424  15.842  1.00  0.00     0.171 C 
BRANCH  21  22
ATOM     22  N   UNL     1      31.608  68.443  15.288  1.00  0.00    -0.272 N 
ATOM     23  C   UNL     1      30.983  69.559  14.781  1.00  0.00     0.253 C 
ATOM     24  C   UNL     1      30.782  67.349  15.189  1.00  0.00     0.253 C 
ATOM     25  O   UNL     1      31.392  70.704  14.700  1.00  0.00    -0.269 OA
ATOM     26  C   UNL     1      29.653  69.124  14.324  1.00  0.00     0.077 C 
ATOM     27  O   UNL     1      30.979  66.194  15.531  1.00  0.00    -0.269 OA
ATOM     28  C   UNL     1      29.535  67.818  14.565  1.00  0.00     0.077 C 
ENDBRANCH  21  22
ENDBRANCH  20  21
ENDBRANCH  19  20
ENDBRANCH  17  19
ENDBRANCH  16  17
ENDBRANCH   1  16
TORSDOF 13
ENDMDL
MODEL 5
REMARK VINA RESULT:    -6.101      4.580      8.046
REMARK INTER + INTRA:         -12.444
REMARK INTER:                 -11.094
REMARK INTRA:                  -1.350
REMARK UNBOUND:                -1.705
REMARK SMILES O=C(CCCc1ccc(N(CCCl)CCCl)cc1)OCCN1C(=O)C=CC1=O
REMARK SMILES IDX 4 1 5 2 6 3 9 4 8 5 17 6 7 7 18 8 10 9 11 10 12 11 13 12
REMARK SMILES IDX 14 13 15 14 16 15 3 16 2 17 1 18 19 19 20 20 21 21 22 22
REMARK SMILES IDX 23 23 27 24 24 25 25 26 28 27 26 28
REMARK H PARENT
ROOT
ATOM      1  C   UNL     1      31.433  75.882  22.292  1.00  0.00     0.016 C 
ENDROOT
BRANCH   1   2
ATOM      2  C   UNL     1      30.684  74.570  22.569  1.00  0.00     0.036 C 
BRANCH   2   3
ATOM      3  C   UNL     1      30.523  73.675  21.367  1.00  0.00    -0.048 A 
ATOM      4  C   UNL     1      30.224  72.016  19.144  1.00  0.00     0.037 A 
ATOM      5  C   UNL     1      31.256  72.953  19.181  1.00  0.00     0.026 A 
ATOM      6  C   UNL     1      29.341  71.908  20.218  1.00  0.00     0.026 A 
ATOM      7  C   UNL     1      31.406  73.783  20.293  1.00  0.00     0.006 A 
ATOM      8  C   UNL     1      29.490  72.737  21.330  1.00  0.00     0.006 A 
BRANCH   4   9
ATOM      9  N   UNL     1      30.074  71.178  18.019  1.00  0.00    -0.369 N 
BRANCH   9  10
ATOM     10  C   UNL     1      29.805  69.763  18.190  1.00  0.00     0.132 C 
BRANCH  10  11
ATOM     11  C   UNL     1      31.022  69.040  18.746  1.00  0.00     0.131 C 
ATOM     12  Cl  UNL     1      32.468  69.342  17.753  1.00  0.00    -0.125 Cl
ENDBRANCH  10  11
ENDBRANCH   9  10
BRANCH   9  13
ATOM     13  C   UNL     1      30.172  71.721  16.680  1.00  0.00     0.132 C 
BRANCH  13  14
ATOM     14  C   UNL     1      29.392  70.872  15.688  1.00  0.00     0.131 C 
ATOM     15  Cl  UNL     1      30.473  69.826  14.736  1.00  0.00    -0.125 Cl
ENDBRANCH  13  14
ENDBRANCH   9  13
ENDBRANCH   4   9
ENDBRANCH   2   3
ENDBRANCH   1   2
BRANCH   1  16
ATOM     16  C   UNL     1      30.640  77.139  22.658  1.00  0.00     0.123 C 
BRANCH  16  17
ATOM     17  C   UNL     1      29.669  77.559  21.578  1.00  0.00     0.305 C 
ATOM     18  O   UNL     1      28.517  77.156  21.489  1.00  0.00    -0.252 OA
BRANCH  17  19
ATOM     19  O   UNL     1      30.265  78.468  20.754  1.00  0.00    -0.464 OA
BRANCH  19  20
ATOM     20  C   UNL     1      30.013  78.292  19.356  1.00  0.00     0.255 C 
BRANCH  20  21
ATOM     21  C   UNL     1      29.716  79.638  18.723  1.00  0.00     0.171 C 
BRANCH  21  22
ATOM     22  N   UNL     1      28.340  79.738  18.316  1.00  0.00    -0.272 N 
ATOM     23  C   UNL     1      27.277  79.915  19.171  1.00  0.00     0.253 C 
ATOM     24  C   UNL     1      27.898  79.672  17.015  1.00  0.00     0.253 C 
ATOM     25  O   UNL     1      27.272  80.014  20.386  1.00  0.00    -0.269 OA
ATOM     26  C   UNL     1      26.068  79.965  18.334  1.00  0.00     0.077 C 
ATOM     27  O   UNL     1      28.535  79.520  15.986  1.00  0.00    -0.269 OA
ATOM     28  C   UNL     1      26.435  79.822  17.060  1.00  0.00     0.077 C 
ENDBRANCH  21  22
ENDBRANCH  20  21
ENDBRANCH  19  20
ENDBRANCH  17  19
ENDBRANCH  16  17
ENDBRANCH   1  16
TORSDOF 13
ENDMDL
MODEL 6
REMARK VINA RESULT:    -6.097      4.503      7.904
REMARK INTER + INTRA:         -12.436
REMARK INTER:                 -11.024
REMARK INTRA:                  -1.412
REMARK UNBOUND:                -1.705
REMARK SMILES O=C(CCCc1ccc(N(CCCl)CCCl)cc1)OCCN1C(=O)C=CC1=O
REMARK SMILES IDX 4 1 5 2 6 3 9 4 8 5 17 6 7 7 18 8 10 9 11 10 12 11 13 12
REMARK SMILES IDX 14 13 15 14 16 15 3 16 2 17 1 18 19 19 20 20 21 21 22 22
REMARK SMILES IDX 23 23 27 24 24 25 25 26 28 27 26 28
REMARK H PARENT
ROOT
ATOM      1  C   UNL     1      31.387  75.747  22.397  1.00  0.00     0.016 C 
ENDROOT
BRANCH   1   2
ATOM      2  C   UNL     1      30.639  74.406  22.404  1.00  0.00     0.036 C 
BRANCH   2   3
ATOM      3  C   UNL     1      30.705  73.645  21.105  1.00  0.00    -0.048 A 
ATOM      4  C   UNL     1      30.826  72.236  18.700  1.00  0.00     0.037 A 
ATOM      5  C   UNL     1      29.919  71.853  19.687  1.00  0.00     0.026 A 
ATOM      6  C   UNL     1      31.673  73.324  18.914  1.00  0.00     0.026 A 
ATOM      7  C   UNL     1      29.858  72.557  20.890  1.00  0.00     0.006 A 
ATOM      8  C   UNL     1      31.612  74.028  20.117  1.00  0.00     0.006 A 
BRANCH   4   9
ATOM      9  N   UNL     1      30.887  71.524  17.484  1.00  0.00    -0.369 N 
BRANCH   9  10
ATOM     10  C   UNL     1      29.911  71.771  16.439  1.00  0.00     0.132 C 
BRANCH  10  11
ATOM     11  C   UNL     1      29.406  70.466  15.845  1.00  0.00     0.131 C 
ATOM     12  Cl  UNL     1      28.292  69.633  16.956  1.00  0.00    -0.125 Cl
ENDBRANCH  10  11
ENDBRANCH   9  10
BRANCH   9  13
ATOM     13  C   UNL     1      31.931  70.546  17.257  1.00  0.00     0.132 C 
BRANCH  13  14
ATOM     14  C   UNL     1      32.972  71.075  16.282  1.00  0.00     0.131 C 
ATOM     15  Cl  UNL     1      33.369  69.867  15.035  1.00  0.00    -0.125 Cl
ENDBRANCH  13  14
ENDBRANCH   9  13
ENDBRANCH   4   9
ENDBRANCH   2   3
ENDBRANCH   1   2
BRANCH   1  16
ATOM     16  C   UNL     1      30.471  76.968  22.513  1.00  0.00     0.123 C 
BRANCH  16  17
ATOM     17  C   UNL     1      29.729  77.274  21.233  1.00  0.00     0.305 C 
ATOM     18  O   UNL     1      28.620  76.835  20.954  1.00  0.00    -0.252 OA
BRANCH  17  19
ATOM     19  O   UNL     1      30.468  78.126  20.466  1.00  0.00    -0.464 OA
BRANCH  19  20
ATOM     20  C   UNL     1      30.159  78.125  19.069  1.00  0.00     0.255 C 
BRANCH  20  21
ATOM     21  C   UNL     1      29.856  79.542  18.617  1.00  0.00     0.171 C 
BRANCH  21  22
ATOM     22  N   UNL     1      28.461  79.713  18.316  1.00  0.00    -0.272 N 
ATOM     23  C   UNL     1      27.918  79.686  17.052  1.00  0.00     0.253 C 
ATOM     24  C   UNL     1      27.475  79.928  19.251  1.00  0.00     0.253 C 
ATOM     25  O   UNL     1      28.472  79.523  15.978  1.00  0.00    -0.269 OA
ATOM     26  C   UNL     1      26.472  79.899  17.209  1.00  0.00     0.077 C 
ATOM     27  O   UNL     1      27.563  80.019  20.464  1.00  0.00    -0.269 OA
ATOM     28  C   UNL     1      26.209  80.042  18.510  1.00  0.00     0.077 C 
ENDBRANCH  21  22
ENDBRANCH  20  21
ENDBRANCH  19  20
ENDBRANCH  17  19
ENDBRANCH  16  17
ENDBRANCH   1  16
TORSDOF 13
ENDMDL
MODEL 7
REMARK VINA RESULT:    -6.079      1.755      3.355
REMARK INTER + INTRA:         -12.405
REMARK INTER:                 -10.924
REMARK INTRA:                  -1.481
REMARK UNBOUND:                -1.705
REMARK SMILES O=C(CCCc1ccc(N(CCCl)CCCl)cc1)OCCN1C(=O)C=CC1=O
REMARK SMILES IDX 4 1 5 2 6 3 9 4 8 5 17 6 7 7 18 8 10 9 11 10 12 11 13 12
REMARK SMILES IDX 14 13 15 14 16 15 3 16 2 17 1 18 19 19 20 20 21 21 22 22
REMARK SMILES IDX 23 23 27 24 24 25 25 26 28 27 26 28
REMARK H PARENT
ROOT
ATOM      1  C   UNL     1      31.513  71.803  17.942  1.00  0.00     0.016 C 
ENDROOT
BRANCH   1   2
ATOM      2  C   UNL     1      30.671  71.925  19.220  1.00  0.00     0.036 C 
BRANCH   2   3
ATOM      3  C   UNL     1      30.917  73.181  20.016  1.00  0.00    -0.048 A 
ATOM      4  C   UNL     1      31.374  75.506  21.488  1.00  0.00     0.037 A 
ATOM      5  C   UNL     1      30.710  74.429  22.074  1.00  0.00     0.026 A 
ATOM      6  C   UNL     1      31.811  75.421  20.167  1.00  0.00     0.026 A 
ATOM      7  C   UNL     1      30.481  73.266  21.338  1.00  0.00     0.006 A 
ATOM      8  C   UNL     1      31.582  74.259  19.430  1.00  0.00     0.006 A 
BRANCH   4   9
ATOM      9  N   UNL     1      31.605  76.681  22.234  1.00  0.00    -0.369 N 
BRANCH   9  10
ATOM     10  C   UNL     1      32.949  77.205  22.379  1.00  0.00     0.132 C 
BRANCH  10  11
ATOM     11  C   UNL     1      33.079  78.565  21.712  1.00  0.00     0.131 C 
ATOM     12  Cl  UNL     1      34.206  78.510  20.335  1.00  0.00    -0.125 Cl
ENDBRANCH  10  11
ENDBRANCH   9  10
BRANCH   9  13
ATOM     13  C   UNL     1      30.501  77.387  22.853  1.00  0.00     0.132 C 
BRANCH  13  14
ATOM     14  C   UNL     1      29.362  77.590  21.866  1.00  0.00     0.131 C 
ATOM     15  Cl  UNL     1      29.735  78.882  20.698  1.00  0.00    -0.125 Cl
ENDBRANCH  13  14
ENDBRANCH   9  13
ENDBRANCH   4   9
ENDBRANCH   2   3
ENDBRANCH   1   2
BRANCH   1  16
ATOM     16  C   UNL     1      32.914  71.231  18.174  1.00  0.00     0.123 C 
BRANCH  16  17
ATOM     17  C   UNL     1      33.562  70.723  16.907  1.00  0.00     0.305 C 
ATOM     18  O   UNL     1      34.105  71.436  16.073  1.00  0.00    -0.252 OA
BRANCH  17  19
ATOM     19  O   UNL     1      33.472  69.362  16.860  1.00  0.00    -0.464 OA
BRANCH  19  20
ATOM     20  C   UNL     1      33.442  68.791  15.548  1.00  0.00     0.255 C 
BRANCH  20  21
ATOM     21  C   UNL     1      32.232  67.885  15.419  1.00  0.00     0.171 C 
BRANCH  21  22
ATOM     22  N   UNL     1      31.004  68.628  15.502  1.00  0.00    -0.272 N 
ATOM     23  C   UNL     1      30.163  68.640  16.591  1.00  0.00     0.253 C 
ATOM     24  C   UNL     1      30.501  69.431  14.505  1.00  0.00     0.253 C 
ATOM     25  O   UNL     1      30.269  68.055  17.655  1.00  0.00    -0.269 OA
ATOM     26  C   UNL     1      29.041  69.527  16.246  1.00  0.00     0.077 C 
ATOM     27  O   UNL     1      30.956  69.671  13.399  1.00  0.00    -0.269 OA
ATOM     28  C   UNL     1      29.241  69.995  15.013  1.00  0.00     0.077 C 
ENDBRANCH  21  22
ENDBRANCH  20  21
ENDBRANCH  19  20
ENDBRANCH  17  19
ENDBRANCH  16  17
ENDBRANCH   1  16
TORSDOF 13
ENDMDL
MODEL 8
REMARK VINA RESULT:    -6.074      4.071      7.111
REMARK INTER + INTRA:         -12.395
REMARK INTER:                 -10.786
REMARK INTRA:                  -1.609
REMARK UNBOUND:                -1.705
REMARK SMILES O=C(CCCc1ccc(N(CCCl)CCCl)cc1)OCCN1C(=O)C=CC1=O
REMARK SMILES IDX 4 1 5 2 6 3 9 4 8 5 17 6 7 7 18 8 10 9 11 10 12 11 13 12
REMARK SMILES IDX 14 13 15 14 16 15 3 16 2 17 1 18 19 19 20 20 21 21 22 22
REMARK SMILES IDX 23 23 27 24 24 25 25 26 28 27 26 28
REMARK H PARENT
ROOT
ATOM      1  C   UNL     1      31.290  76.330  22.493  1.00  0.00     0.016 C 
ENDROOT
BRANCH   1   2
ATOM      2  C   UNL     1      30.842  74.872  22.673  1.00  0.00     0.036 C 
BRANCH   2   3
ATOM      3  C   UNL     1      30.946  74.026  21.430  1.00  0.00    -0.048 A 
ATOM      4  C   UNL     1      31.139  72.461  19.129  1.00  0.00     0.037 A 
ATOM      5  C   UNL     1      30.121  72.221  20.052  1.00  0.00     0.026 A 
ATOM      6  C   UNL     1      32.060  73.483  19.356  1.00  0.00     0.026 A 
ATOM      7  C   UNL     1      30.025  73.004  21.204  1.00  0.00     0.006 A 
ATOM      8  C   UNL     1      31.964  74.266  20.506  1.00  0.00     0.006 A 
BRANCH   4   9
ATOM      9  N   UNL     1      31.235  71.668  17.966  1.00  0.00    -0.369 N 
BRANCH   9  10
ATOM     10  C   UNL     1      30.405  70.489  17.811  1.00  0.00     0.132 C 
BRANCH  10  11
ATOM     11  C   UNL     1      29.444  70.649  16.644  1.00  0.00     0.131 C 
ATOM     12  Cl  UNL     1      28.091  69.497  16.752  1.00  0.00    -0.125 Cl
ENDBRANCH  10  11
ENDBRANCH   9  10
BRANCH   9  13
ATOM     13  C   UNL     1      32.154  72.029  16.906  1.00  0.00     0.132 C 
BRANCH  13  14
ATOM     14  C   UNL     1      33.187  70.934  16.683  1.00  0.00     0.131 C 
ATOM     15  Cl  UNL     1      34.087  70.577  18.178  1.00  0.00    -0.125 Cl
ENDBRANCH  13  14
ENDBRANCH   9  13
ENDBRANCH   4   9
ENDBRANCH   2   3
ENDBRANCH   1   2
BRANCH   1  16
ATOM     16  C   UNL     1      30.176  77.355  22.721  1.00  0.00     0.123 C 
BRANCH  16  17
ATOM     17  C   UNL     1      29.239  77.479  21.542  1.00  0.00     0.305 C 
ATOM     18  O   UNL     1      28.469  76.600  21.174  1.00  0.00    -0.252 OA
BRANCH  17  19
ATOM     19  O   UNL     1      29.364  78.718  20.985  1.00  0.00    -0.464 OA
BRANCH  19  20
ATOM     20  C   UNL     1      28.659  78.915  19.755  1.00  0.00     0.255 C 
BRANCH  20  21
ATOM     21  C   UNL     1      29.588  79.547  18.736  1.00  0.00     0.171 C 
BRANCH  21  22
ATOM     22  N   UNL     1      29.853  78.655  17.639  1.00  0.00    -0.272 N 
ATOM     23  C   UNL     1      29.281  78.750  16.391  1.00  0.00     0.253 C 
ATOM     24  C   UNL     1      30.714  77.584  17.686  1.00  0.00     0.253 C 
ATOM     25  O   UNL     1      28.472  79.561  15.973  1.00  0.00    -0.269 OA
ATOM     26  C   UNL     1      29.833  77.647  15.590  1.00  0.00     0.077 C 
ATOM     27  O   UNL     1      31.398  77.178  18.611  1.00  0.00    -0.269 OA
ATOM     28  C   UNL     1      30.681  76.958  16.355  1.00  0.00     0.077 C 
ENDBRANCH  21  22
ENDBRANCH  20  21
ENDBRANCH  19  20
ENDBRANCH  17  19
ENDBRANCH  16  17
ENDBRANCH   1  16
TORSDOF 13
ENDMDL
MODEL 9
REMARK VINA RESULT:    -6.056      4.581      8.206
REMARK INTER + INTRA:         -12.363
REMARK INTER:                 -10.967
REMARK INTRA:                  -1.396
REMARK UNBOUND:                -1.705
REMARK SMILES O=C(CCCc1ccc(N(CCCl)CCCl)cc1)OCCN1C(=O)C=CC1=O
REMARK SMILES IDX 4 1 5 2 6 3 9 4 8 5 17 6 7 7 18 8 10 9 11 10 12 11 13 12
REMARK SMILES IDX 14 13 15 14 16 15 3 16 2 17 1 18 19 19 20 20 21 21 22 22
REMARK SMILES IDX 23 23 27 24 24 25 25 26 28 27 26 28
REMARK H PARENT
ROOT
ATOM      1  C   UNL     1      30.694  75.686  22.716  1.00  0.00     0.016 C 
ENDROOT
BRANCH   1   2
ATOM      2  C   UNL     1      31.965  75.261  21.965  1.00  0.00     0.036 C 
BRANCH   2   3
ATOM      3  C   UNL     1      31.732  74.278  20.846  1.00  0.00    -0.048 A 
ATOM      4  C   UNL     1      31.302  72.458  18.776  1.00  0.00     0.037 A 
ATOM      5  C   UNL     1      32.361  73.362  18.700  1.00  0.00     0.026 A 
ATOM      6  C   UNL     1      30.458  72.464  19.886  1.00  0.00     0.026 A 
ATOM      7  C   UNL     1      32.576  74.273  19.736  1.00  0.00     0.006 A 
ATOM      8  C   UNL     1      30.673  73.373  20.921  1.00  0.00     0.006 A 
BRANCH   4   9
ATOM      9  N   UNL     1      31.085  71.539  17.728  1.00  0.00    -0.369 N 
BRANCH   9  10
ATOM     10  C   UNL     1      31.919  70.358  17.605  1.00  0.00     0.132 C 
BRANCH  10  11
ATOM     11  C   UNL     1      32.819  70.452  16.383  1.00  0.00     0.131 C 
ATOM     12  Cl  UNL     1      32.537  69.099  15.261  1.00  0.00    -0.125 Cl
ENDBRANCH  10  11
ENDBRANCH   9  10
BRANCH   9  13
ATOM     13  C   UNL     1      30.019  71.753  16.771  1.00  0.00     0.132 C 
BRANCH  13  14
ATOM     14  C   UNL     1      29.113  70.535  16.681  1.00  0.00     0.131 C 
ATOM     15  Cl  UNL     1      29.030  69.908  15.016  1.00  0.00    -0.125 Cl
ENDBRANCH  13  14
ENDBRANCH   9  13
ENDBRANCH   4   9
ENDBRANCH   2   3
ENDBRANCH   1   2
BRANCH   1  16
ATOM     16  C   UNL     1      30.294  77.144  22.482  1.00  0.00     0.123 C 
BRANCH  16  17
ATOM     17  C   UNL     1      29.611  77.363  21.152  1.00  0.00     0.305 C 
ATOM     18  O   UNL     1      28.708  76.662  20.714  1.00  0.00    -0.252 OA
BRANCH  17  19
ATOM     19  O   UNL     1      30.135  78.466  20.543  1.00  0.00    -0.464 OA
BRANCH  19  20
ATOM     20  C   UNL     1      30.099  78.457  19.113  1.00  0.00     0.255 C 
BRANCH  20  21
ATOM     21  C   UNL     1      29.672  79.824  18.610  1.00  0.00     0.171 C 
BRANCH  21  22
ATOM     22  N   UNL     1      28.279  79.845  18.256  1.00  0.00    -0.272 N 
ATOM     23  C   UNL     1      27.791  79.756  16.973  1.00  0.00     0.253 C 
ATOM     24  C   UNL     1      27.242  79.957  19.152  1.00  0.00     0.253 C 
ATOM     25  O   UNL     1      28.398  79.650  15.921  1.00  0.00    -0.269 OA
ATOM     26  C   UNL     1      26.324  79.815  17.075  1.00  0.00     0.077 C 
ATOM     27  O   UNL     1      27.273  80.060  20.367  1.00  0.00    -0.269 OA
ATOM     28  C   UNL     1      26.000  79.933  18.363  1.00  0.00     0.077 C 
ENDBRANCH  21  22
ENDBRANCH  20  21
ENDBRANCH  19  20
ENDBRANCH  17  19
ENDBRANCH  16  17
ENDBRANCH   1  16
TORSDOF 13
ENDMDL
