MODEL 1
REMARK VINA RESULT:    -8.275      0.000      0.000
REMARK INTER + INTRA:         -10.600
REMARK INTER:                  -9.726
REMARK INTRA:                  -0.874
REMARK UNBOUND:                -0.874
REMARK SMILES Cc1cccc(-c2nc(Nc3ccc4[nH]ncc4c3)c3ccccc3n2)n1
REMARK SMILES IDX 8 1 26 2 20 3 9 4 25 5 7 6 21 7 24 8 22 9 23 10 10 11 11 13
REMARK SMILES IDX 19 14 12 15 18 16 13 17 14 18 17 19 15 20 16 21 6 23 27 24
REMARK SMILES IDX 5 25 2 26 4 27 3 28 1 29
REMARK H PARENT 10 12 15 22
ROOT
ATOM      1  N   UNL     1      29.989  69.990  19.367  1.00  0.00    -0.209 NA
ATOM      2  N   UNL     1      29.913  68.211  17.744  1.00  0.00    -0.226 NA
ATOM      3  C   UNL     1      29.772  70.490  17.012  1.00  0.00     0.043 A 
ATOM      4  C   UNL     1      29.872  70.864  18.350  1.00  0.00     0.142 A 
ATOM      5  C   UNL     1      29.798  69.111  16.751  1.00  0.00     0.077 A 
ATOM      6  C   UNL     1      30.002  68.699  18.998  1.00  0.00     0.180 A 
ATOM      7  C   UNL     1      29.651  71.422  15.967  1.00  0.00     0.014 A 
ATOM      8  C   UNL     1      29.699  68.698  15.425  1.00  0.00     0.029 A 
ATOM      9  C   UNL     1      29.554  70.982  14.651  1.00  0.00     0.001 A 
ATOM     10  C   UNL     1      29.579  69.618  14.379  1.00  0.00     0.002 A 
ENDROOT
BRANCH   4  11
ATOM     11  N   UNL     1      29.854  72.239  18.690  1.00  0.00    -0.340 N 
ATOM     12  H   UNL     1      28.990  72.725  18.411  1.00  0.00     0.168 HD
BRANCH  11  13
ATOM     13  C   UNL     1      30.786  73.067  19.335  1.00  0.00     0.040 A 
ATOM     14  C   UNL     1      30.498  73.579  20.611  1.00  0.00     0.038 A 
ATOM     15  C   UNL     1      31.997  73.381  18.704  1.00  0.00     0.028 A 
ATOM     16  C   UNL     1      31.443  74.408  21.239  1.00  0.00     0.022 A 
ATOM     17  C   UNL     1      32.948  74.204  19.316  1.00  0.00     0.030 A 
ATOM     18  C   UNL     1      32.635  74.699  20.585  1.00  0.00     0.065 A 
ATOM     19  C   UNL     1      31.541  75.098  22.466  1.00  0.00     0.143 A 
ATOM     20  N   UNL     1      33.328  75.511  21.441  1.00  0.00    -0.278 N 
ATOM     21  N   UNL     1      32.687  75.771  22.593  1.00  0.00    -0.183 NA
ATOM     22  H   UNL     1      34.260  75.891  21.222  1.00  0.00     0.190 HD
ENDBRANCH  11  13
ENDBRANCH   4  11
BRANCH   6  23
ATOM     23  C   UNL     1      30.126  67.730  20.055  1.00  0.00     0.108 A 
ATOM     24  N   UNL     1      29.126  67.743  20.967  1.00  0.00    -0.250 NA
ATOM     25  C   UNL     1      31.205  66.859  20.107  1.00  0.00     0.032 A 
ATOM     26  C   UNL     1      29.214  66.844  21.973  1.00  0.00     0.038 A 
ATOM     27  C   UNL     1      31.260  65.949  21.156  1.00  0.00     0.004 A 
ATOM     28  C   UNL     1      30.249  65.935  22.112  1.00  0.00     0.023 A 
ATOM     29  C   UNL     1      28.113  66.858  22.979  1.00  0.00     0.067 C 
ENDBRANCH   6  23
TORSDOF 3
ENDMDL
MODEL 2
REMARK VINA RESULT:    -8.254      3.699      5.775
REMARK INTER + INTRA:         -10.576
REMARK INTER:                  -9.788
REMARK INTRA:                  -0.788
REMARK UNBOUND:                -0.874
REMARK SMILES Cc1cccc(-c2nc(Nc3ccc4[nH]ncc4c3)c3ccccc3n2)n1
REMARK SMILES IDX 8 1 26 2 20 3 9 4 25 5 7 6 21 7 24 8 22 9 23 10 10 11 11 13
REMARK SMILES IDX 19 14 12 15 18 16 13 17 14 18 17 19 15 20 16 21 6 23 27 24
REMARK SMILES IDX 5 25 2 26 4 27 3 28 1 29
REMARK H PARENT 10 12 15 22
ROOT
ATOM      1  N   UNL     1      30.764  73.415  18.194  1.00  0.00    -0.209 NA
ATOM      2  N   UNL     1      29.402  71.538  18.847  1.00  0.00    -0.226 NA
ATOM      3  C   UNL     1      30.076  71.774  16.558  1.00  0.00     0.043 A 
ATOM      4  C   UNL     1      30.741  72.938  16.935  1.00  0.00     0.142 A 
ATOM      5  C   UNL     1      29.400  71.088  17.580  1.00  0.00     0.077 A 
ATOM      6  C   UNL     1      30.084  72.677  19.085  1.00  0.00     0.180 A 
ATOM      7  C   UNL     1      30.066  71.296  15.236  1.00  0.00     0.014 A 
ATOM      8  C   UNL     1      28.722  69.920  17.241  1.00  0.00     0.029 A 
ATOM      9  C   UNL     1      29.381  70.126  14.925  1.00  0.00     0.001 A 
ATOM     10  C   UNL     1      28.708  69.437  15.929  1.00  0.00     0.002 A 
ENDROOT
BRANCH   4  11
ATOM     11  N   UNL     1      31.446  73.683  15.958  1.00  0.00    -0.340 N 
ATOM     12  H   UNL     1      32.313  73.230  15.635  1.00  0.00     0.168 HD
BRANCH  11  13
ATOM     13  C   UNL     1      31.191  74.919  15.343  1.00  0.00     0.040 A 
ATOM     14  C   UNL     1      30.481  75.911  16.040  1.00  0.00     0.038 A 
ATOM     15  C   UNL     1      31.642  75.158  14.039  1.00  0.00     0.028 A 
ATOM     16  C   UNL     1      30.235  77.141  15.407  1.00  0.00     0.022 A 
ATOM     17  C   UNL     1      31.406  76.377  13.395  1.00  0.00     0.030 A 
ATOM     18  C   UNL     1      30.698  77.345  14.112  1.00  0.00     0.065 A 
ATOM     19  C   UNL     1      29.589  78.350  15.742  1.00  0.00     0.143 A 
ATOM     20  N   UNL     1      30.307  78.614  13.785  1.00  0.00    -0.278 N 
ATOM     21  N   UNL     1      29.630  79.250  14.756  1.00  0.00    -0.183 NA
ATOM     22  H   UNL     1      30.513  79.046  12.872  1.00  0.00     0.190 HD
ENDBRANCH  11  13
ENDBRANCH   4  11
BRANCH   6  23
ATOM     23  C   UNL     1      30.082  73.151  20.444  1.00  0.00     0.108 A 
ATOM     24  N   UNL     1      31.051  74.048  20.741  1.00  0.00    -0.250 NA
ATOM     25  C   UNL     1      29.141  72.702  21.360  1.00  0.00     0.032 A 
ATOM     26  C   UNL     1      31.076  74.512  22.011  1.00  0.00     0.038 A 
ATOM     27  C   UNL     1      29.199  73.202  22.655  1.00  0.00     0.004 A 
ATOM     28  C   UNL     1      30.182  74.125  22.996  1.00  0.00     0.023 A 
ATOM     29  C   UNL     1      32.144  75.500  22.340  1.00  0.00     0.067 C 
ENDBRANCH   6  23
TORSDOF 3
ENDMDL
MODEL 3
REMARK VINA RESULT:    -8.195      3.051      6.243
REMARK INTER + INTRA:         -10.507
REMARK INTER:                  -9.636
REMARK INTRA:                  -0.871
REMARK UNBOUND:                -0.874
REMARK SMILES Cc1cccc(-c2nc(Nc3ccc4[nH]ncc4c3)c3ccccc3n2)n1
REMARK SMILES IDX 8 1 26 2 20 3 9 4 25 5 7 6 21 7 24 8 22 9 23 10 10 11 11 13
REMARK SMILES IDX 19 14 12 15 18 16 13 17 14 18 17 19 15 20 16 21 6 23 27 24
REMARK SMILES IDX 5 25 2 26 4 27 3 28 1 29
REMARK H PARENT 10 12 15 22
ROOT
ATOM      1  N   UNL     1      32.157  72.622  18.571  1.00  0.00    -0.209 NA
ATOM      2  N   UNL     1      30.295  72.275  20.060  1.00  0.00    -0.226 NA
ATOM      3  C   UNL     1      31.884  74.006  20.534  1.00  0.00     0.043 A 
ATOM      4  C   UNL     1      32.558  73.623  19.377  1.00  0.00     0.142 A 
ATOM      5  C   UNL     1      30.723  73.281  20.844  1.00  0.00     0.077 A 
ATOM      6  C   UNL     1      31.035  72.000  18.967  1.00  0.00     0.180 A 
ATOM      7  C   UNL     1      32.324  75.056  21.360  1.00  0.00     0.014 A 
ATOM      8  C   UNL     1      30.022  73.635  21.994  1.00  0.00     0.029 A 
ATOM      9  C   UNL     1      31.604  75.389  22.503  1.00  0.00     0.001 A 
ATOM     10  C   UNL     1      30.452  74.677  22.820  1.00  0.00     0.002 A 
ENDROOT
BRANCH   4  11
ATOM     11  N   UNL     1      33.738  74.310  19.000  1.00  0.00    -0.340 N 
ATOM     12  H   UNL     1      34.572  74.030  19.537  1.00  0.00     0.168 HD
BRANCH  11  13
ATOM     13  C   UNL     1      33.992  75.298  18.036  1.00  0.00     0.040 A 
ATOM     14  C   UNL     1      34.710  74.970  16.874  1.00  0.00     0.038 A 
ATOM     15  C   UNL     1      33.530  76.606  18.236  1.00  0.00     0.028 A 
ATOM     16  C   UNL     1      34.955  75.973  15.921  1.00  0.00     0.022 A 
ATOM     17  C   UNL     1      33.765  77.615  17.296  1.00  0.00     0.030 A 
ATOM     18  C   UNL     1      34.482  77.260  16.150  1.00  0.00     0.065 A 
ATOM     19  C   UNL     1      35.607  76.058  14.673  1.00  0.00     0.143 A 
ATOM     20  N   UNL     1      34.874  77.989  15.061  1.00  0.00    -0.278 N 
ATOM     21  N   UNL     1      35.560  77.284  14.146  1.00  0.00    -0.183 NA
ATOM     22  H   UNL     1      34.662  78.991  14.950  1.00  0.00     0.190 HD
ENDBRANCH  11  13
ENDBRANCH   4  11
BRANCH   6  23
ATOM     23  C   UNL     1      30.570  70.922  18.134  1.00  0.00     0.108 A 
ATOM     24  N   UNL     1      30.059  71.299  16.939  1.00  0.00    -0.250 NA
ATOM     25  C   UNL     1      30.652  69.603  18.555  1.00  0.00     0.032 A 
ATOM     26  C   UNL     1      29.614  70.309  16.133  1.00  0.00     0.038 A 
ATOM     27  C   UNL     1      30.183  68.613  17.700  1.00  0.00     0.004 A 
ATOM     28  C   UNL     1      29.652  68.964  16.462  1.00  0.00     0.023 A 
ATOM     29  C   UNL     1      29.050  70.723  14.815  1.00  0.00     0.067 C 
ENDBRANCH   6  23
TORSDOF 3
ENDMDL
MODEL 4
REMARK VINA RESULT:    -8.157      4.206      9.540
REMARK INTER + INTRA:         -10.462
REMARK INTER:                  -9.613
REMARK INTRA:                  -0.849
REMARK UNBOUND:                -0.874
REMARK SMILES Cc1cccc(-c2nc(Nc3ccc4[nH]ncc4c3)c3ccccc3n2)n1
REMARK SMILES IDX 8 1 26 2 20 3 9 4 25 5 7 6 21 7 24 8 22 9 23 10 10 11 11 13
REMARK SMILES IDX 19 14 12 15 18 16 13 17 14 18 17 19 15 20 16 21 6 23 27 24
REMARK SMILES IDX 5 25 2 26 4 27 3 28 1 29
REMARK H PARENT 10 12 15 22
ROOT
ATOM      1  N   UNL     1      29.325  76.859  20.441  1.00  0.00    -0.209 NA
ATOM      2  N   UNL     1      31.108  78.441  20.792  1.00  0.00    -0.226 NA
ATOM      3  C   UNL     1      31.282  76.236  21.716  1.00  0.00     0.043 A 
ATOM      4  C   UNL     1      30.036  75.967  21.156  1.00  0.00     0.142 A 
ATOM      5  C   UNL     1      31.792  77.526  21.501  1.00  0.00     0.077 A 
ATOM      6  C   UNL     1      29.911  78.058  20.301  1.00  0.00     0.180 A 
ATOM      7  C   UNL     1      32.005  75.287  22.460  1.00  0.00     0.014 A 
ATOM      8  C   UNL     1      33.036  77.834  22.046  1.00  0.00     0.029 A 
ATOM      9  C   UNL     1      33.246  75.620  22.993  1.00  0.00     0.001 A 
ATOM     10  C   UNL     1      33.762  76.896  22.786  1.00  0.00     0.002 A 
ENDROOT
BRANCH   4  11
ATOM     11  N   UNL     1      29.458  74.685  21.331  1.00  0.00    -0.340 N 
ATOM     12  H   UNL     1      29.240  74.458  22.312  1.00  0.00     0.168 HD
BRANCH  11  13
ATOM     13  C   UNL     1      29.123  73.665  20.427  1.00  0.00     0.040 A 
ATOM     14  C   UNL     1      29.979  72.561  20.274  1.00  0.00     0.038 A 
ATOM     15  C   UNL     1      27.941  73.752  19.680  1.00  0.00     0.028 A 
ATOM     16  C   UNL     1      29.627  71.551  19.362  1.00  0.00     0.022 A 
ATOM     17  C   UNL     1      27.577  72.755  18.769  1.00  0.00     0.030 A 
ATOM     18  C   UNL     1      28.446  71.669  18.637  1.00  0.00     0.065 A 
ATOM     19  C   UNL     1      30.183  70.329  18.928  1.00  0.00     0.143 A 
ATOM     20  N   UNL     1      28.390  70.549  17.854  1.00  0.00    -0.278 N 
ATOM     21  N   UNL     1      29.433  69.716  18.010  1.00  0.00    -0.183 NA
ATOM     22  H   UNL     1      27.615  70.359  17.202  1.00  0.00     0.190 HD
ENDBRANCH  11  13
ENDBRANCH   4  11
BRANCH   6  23
ATOM     23  C   UNL     1      29.185  79.043  19.543  1.00  0.00     0.108 A 
ATOM     24  N   UNL     1      27.841  78.891  19.542  1.00  0.00    -0.250 NA
ATOM     25  C   UNL     1      29.846  80.062  18.872  1.00  0.00     0.032 A 
ATOM     26  C   UNL     1      27.130  79.801  18.838  1.00  0.00     0.038 A 
ATOM     27  C   UNL     1      29.082  80.978  18.158  1.00  0.00     0.004 A 
ATOM     28  C   UNL     1      27.697  80.853  18.137  1.00  0.00     0.023 A 
ATOM     29  C   UNL     1      25.648  79.635  18.836  1.00  0.00     0.067 C 
ENDBRANCH   6  23
TORSDOF 3
ENDMDL
MODEL 5
REMARK VINA RESULT:    -8.104      3.550      6.974
REMARK INTER + INTRA:         -10.400
REMARK INTER:                  -9.547
REMARK INTRA:                  -0.852
REMARK UNBOUND:                -0.874
REMARK SMILES Cc1cccc(-c2nc(Nc3ccc4[nH]ncc4c3)c3ccccc3n2)n1
REMARK SMILES IDX 8 1 26 2 20 3 9 4 25 5 7 6 21 7 24 8 22 9 23 10 10 11 11 13
REMARK SMILES IDX 19 14 12 15 18 16 13 17 14 18 17 19 15 20 16 21 6 23 27 24
REMARK SMILES IDX 5 25 2 26 4 27 3 28 1 29
REMARK H PARENT 10 12 15 22
ROOT
ATOM      1  N   UNL     1      32.057  73.661  16.191  1.00  0.00    -0.209 NA
ATOM      2  N   UNL     1      30.685  72.883  14.370  1.00  0.00    -0.226 NA
ATOM      3  C   UNL     1      30.624  71.736  16.475  1.00  0.00     0.043 A 
ATOM      4  C   UNL     1      31.557  72.660  16.939  1.00  0.00     0.142 A 
ATOM      5  C   UNL     1      30.206  71.893  15.144  1.00  0.00     0.077 A 
ATOM      6  C   UNL     1      31.585  73.713  14.936  1.00  0.00     0.180 A 
ATOM      7  C   UNL     1      30.116  70.698  17.276  1.00  0.00     0.014 A 
ATOM      8  C   UNL     1      29.273  70.988  14.644  1.00  0.00     0.029 A 
ATOM      9  C   UNL     1      29.185  69.808  16.751  1.00  0.00     0.001 A 
ATOM     10  C   UNL     1      28.762  69.953  15.433  1.00  0.00     0.002 A 
ENDROOT
BRANCH   4  11
ATOM     11  N   UNL     1      32.025  72.564  18.273  1.00  0.00    -0.340 N 
ATOM     12  H   UNL     1      32.702  71.802  18.422  1.00  0.00     0.168 HD
BRANCH  11  13
ATOM     13  C   UNL     1      31.746  73.309  19.430  1.00  0.00     0.040 A 
ATOM     14  C   UNL     1      32.491  74.467  19.711  1.00  0.00     0.038 A 
ATOM     15  C   UNL     1      30.729  72.894  20.300  1.00  0.00     0.028 A 
ATOM     16  C   UNL     1      32.197  75.197  20.874  1.00  0.00     0.022 A 
ATOM     17  C   UNL     1      30.424  73.610  21.462  1.00  0.00     0.030 A 
ATOM     18  C   UNL     1      31.181  74.758  21.716  1.00  0.00     0.065 A 
ATOM     19  C   UNL     1      32.685  76.366  21.496  1.00  0.00     0.143 A 
ATOM     20  N   UNL     1      31.141  75.665  22.739  1.00  0.00    -0.278 N 
ATOM     21  N   UNL     1      32.045  76.654  22.632  1.00  0.00    -0.183 NA
ATOM     22  H   UNL     1      30.477  75.597  23.523  1.00  0.00     0.190 HD
ENDBRANCH  11  13
ENDBRANCH   4  11
BRANCH   6  23
ATOM     23  C   UNL     1      32.094  74.770  14.101  1.00  0.00     0.108 A 
ATOM     24  N   UNL     1      31.184  75.702  13.736  1.00  0.00    -0.250 NA
ATOM     25  C   UNL     1      33.427  74.801  13.716  1.00  0.00     0.032 A 
ATOM     26  C   UNL     1      31.632  76.708  12.951  1.00  0.00     0.038 A 
ATOM     27  C   UNL     1      33.850  75.850  12.909  1.00  0.00     0.004 A 
ATOM     28  C   UNL     1      32.941  76.827  12.514  1.00  0.00     0.023 A 
ATOM     29  C   UNL     1      30.630  77.736  12.546  1.00  0.00     0.067 C 
ENDBRANCH   6  23
TORSDOF 3
ENDMDL
MODEL 6
REMARK VINA RESULT:    -8.020      3.026      7.620
REMARK INTER + INTRA:         -10.300
REMARK INTER:                  -9.413
REMARK INTRA:                  -0.887
REMARK UNBOUND:                -0.874
REMARK SMILES Cc1cccc(-c2nc(Nc3ccc4[nH]ncc4c3)c3ccccc3n2)n1
REMARK SMILES IDX 8 1 26 2 20 3 9 4 25 5 7 6 21 7 24 8 22 9 23 10 10 11 11 13
REMARK SMILES IDX 19 14 12 15 18 16 13 17 14 18 17 19 15 20 16 21 6 23 27 24
REMARK SMILES IDX 5 25 2 26 4 27 3 28 1 29
REMARK H PARENT 10 12 15 22
ROOT
ATOM      1  N   UNL     1      30.427  73.878  18.186  1.00  0.00    -0.209 NA
ATOM      2  N   UNL     1      32.053  75.628  17.871  1.00  0.00    -0.226 NA
ATOM      3  C   UNL     1      31.119  74.520  15.960  1.00  0.00     0.043 A 
ATOM      4  C   UNL     1      30.370  73.750  16.847  1.00  0.00     0.142 A 
ATOM      5  C   UNL     1      31.972  75.474  16.537  1.00  0.00     0.077 A 
ATOM      6  C   UNL     1      31.276  74.822  18.623  1.00  0.00     0.180 A 
ATOM      7  C   UNL     1      31.042  74.367  14.565  1.00  0.00     0.014 A 
ATOM      8  C   UNL     1      32.738  76.263  15.683  1.00  0.00     0.029 A 
ATOM      9  C   UNL     1      31.818  75.169  13.734  1.00  0.00     0.001 A 
ATOM     10  C   UNL     1      32.667  76.118  14.294  1.00  0.00     0.002 A 
ENDROOT
BRANCH   4  11
ATOM     11  N   UNL     1      29.486  72.766  16.338  1.00  0.00    -0.340 N 
ATOM     12  H   UNL     1      28.579  73.144  16.027  1.00  0.00     0.168 HD
BRANCH  11  13
ATOM     13  C   UNL     1      29.608  71.378  16.173  1.00  0.00     0.040 A 
ATOM     14  C   UNL     1      29.889  70.849  14.902  1.00  0.00     0.038 A 
ATOM     15  C   UNL     1      29.447  70.526  17.273  1.00  0.00     0.028 A 
ATOM     16  C   UNL     1      30.006  69.456  14.757  1.00  0.00     0.022 A 
ATOM     17  C   UNL     1      29.561  69.138  17.145  1.00  0.00     0.030 A 
ATOM     18  C   UNL     1      29.841  68.640  15.870  1.00  0.00     0.065 A 
ATOM     19  C   UNL     1      30.269  68.558  13.701  1.00  0.00     0.143 A 
ATOM     20  N   UNL     1      30.013  67.363  15.410  1.00  0.00    -0.278 N 
ATOM     21  N   UNL     1      30.274  67.283  14.094  1.00  0.00    -0.183 NA
ATOM     22  H   UNL     1      29.948  66.534  16.018  1.00  0.00     0.190 HD
ENDBRANCH  11  13
ENDBRANCH   4  11
BRANCH   6  23
ATOM     23  C   UNL     1      31.368  74.992  20.049  1.00  0.00     0.108 A 
ATOM     24  N   UNL     1      32.146  76.021  20.456  1.00  0.00    -0.250 NA
ATOM     25  C   UNL     1      30.695  74.145  20.918  1.00  0.00     0.032 A 
ATOM     26  C   UNL     1      32.253  76.208  21.790  1.00  0.00     0.038 A 
ATOM     27  C   UNL     1      30.829  74.367  22.283  1.00  0.00     0.004 A 
ATOM     28  C   UNL     1      31.621  75.417  22.737  1.00  0.00     0.023 A 
ATOM     29  C   UNL     1      33.112  77.342  22.241  1.00  0.00     0.067 C 
ENDBRANCH   6  23
TORSDOF 3
ENDMDL
MODEL 7
REMARK VINA RESULT:    -7.817      3.868      8.801
REMARK INTER + INTRA:         -10.062
REMARK INTER:                  -9.193
REMARK INTRA:                  -0.869
REMARK UNBOUND:                -0.874
REMARK SMILES Cc1cccc(-c2nc(Nc3ccc4[nH]ncc4c3)c3ccccc3n2)n1
REMARK SMILES IDX 8 1 26 2 20 3 9 4 25 5 7 6 21 7 24 8 22 9 23 10 10 11 11 13
REMARK SMILES IDX 19 14 12 15 18 16 13 17 14 18 17 19 15 20 16 21 6 23 27 24
REMARK SMILES IDX 5 25 2 26 4 27 3 28 1 29
REMARK H PARENT 10 12 15 22
ROOT
ATOM      1  N   UNL     1      33.704  75.701  18.565  1.00  0.00    -0.209 NA
ATOM      2  N   UNL     1      34.034  77.891  17.615  1.00  0.00    -0.226 NA
ATOM      3  C   UNL     1      33.477  77.678  19.938  1.00  0.00     0.043 A 
ATOM      4  C   UNL     1      33.455  76.299  19.745  1.00  0.00     0.142 A 
ATOM      5  C   UNL     1      33.780  78.456  18.809  1.00  0.00     0.077 A 
ATOM      6  C   UNL     1      33.982  76.545  17.558  1.00  0.00     0.180 A 
ATOM      7  C   UNL     1      33.213  78.279  21.181  1.00  0.00     0.014 A 
ATOM      8  C   UNL     1      33.811  79.840  18.962  1.00  0.00     0.029 A 
ATOM      9  C   UNL     1      33.251  79.663  21.306  1.00  0.00     0.001 A 
ATOM     10  C   UNL     1      33.550  80.445  20.195  1.00  0.00     0.002 A 
ENDROOT
BRANCH   4  11
ATOM     11  N   UNL     1      33.157  75.449  20.840  1.00  0.00    -0.340 N 
ATOM     12  H   UNL     1      33.933  75.348  21.510  1.00  0.00     0.168 HD
BRANCH  11  13
ATOM     13  C   UNL     1      32.009  74.720  21.188  1.00  0.00     0.040 A 
ATOM     14  C   UNL     1      31.547  73.701  20.339  1.00  0.00     0.038 A 
ATOM     15  C   UNL     1      31.330  75.012  22.377  1.00  0.00     0.028 A 
ATOM     16  C   UNL     1      30.395  72.984  20.704  1.00  0.00     0.022 A 
ATOM     17  C   UNL     1      30.182  74.307  22.755  1.00  0.00     0.030 A 
ATOM     18  C   UNL     1      29.745  73.299  21.892  1.00  0.00     0.065 A 
ATOM     19  C   UNL     1      29.633  71.929  20.158  1.00  0.00     0.143 A 
ATOM     20  N   UNL     1      28.683  72.439  21.961  1.00  0.00    -0.278 N 
ATOM     21  N   UNL     1      28.590  71.595  20.920  1.00  0.00    -0.183 NA
ATOM     22  H   UNL     1      28.013  72.438  22.744  1.00  0.00     0.190 HD
ENDBRANCH  11  13
ENDBRANCH   4  11
BRANCH   6  23
ATOM     23  C   UNL     1      34.254  75.948  16.277  1.00  0.00     0.108 A 
ATOM     24  N   UNL     1      33.948  74.634  16.179  1.00  0.00    -0.250 NA
ATOM     25  C   UNL     1      34.794  76.693  15.238  1.00  0.00     0.032 A 
ATOM     26  C   UNL     1      34.193  74.043  14.987  1.00  0.00     0.038 A 
ATOM     27  C   UNL     1      35.032  76.052  14.028  1.00  0.00     0.004 A 
ATOM     28  C   UNL     1      34.729  74.701  13.892  1.00  0.00     0.023 A 
ATOM     29  C   UNL     1      33.857  72.594  14.877  1.00  0.00     0.067 C 
ENDBRANCH   6  23
TORSDOF 3
ENDMDL
MODEL 8
REMARK VINA RESULT:    -7.797      2.680      8.295
REMARK INTER + INTRA:         -10.039
REMARK INTER:                  -9.151
REMARK INTRA:                  -0.887
REMARK UNBOUND:                -0.874
REMARK SMILES Cc1cccc(-c2nc(Nc3ccc4[nH]ncc4c3)c3ccccc3n2)n1
REMARK SMILES IDX 8 1 26 2 20 3 9 4 25 5 7 6 21 7 24 8 22 9 23 10 10 11 11 13
REMARK SMILES IDX 19 14 12 15 18 16 13 17 14 18 17 19 15 20 16 21 6 23 27 24
REMARK SMILES IDX 5 25 2 26 4 27 3 28 1 29
REMARK H PARENT 10 12 15 22
ROOT
ATOM      1  N   UNL     1      31.734  72.885  17.847  1.00  0.00    -0.209 NA
ATOM      2  N   UNL     1      32.352  74.681  19.330  1.00  0.00    -0.226 NA
ATOM      3  C   UNL     1      30.713  73.077  20.030  1.00  0.00     0.043 A 
ATOM      4  C   UNL     1      30.883  72.453  18.797  1.00  0.00     0.142 A 
ATOM      5  C   UNL     1      31.493  74.222  20.257  1.00  0.00     0.077 A 
ATOM      6  C   UNL     1      32.426  73.988  18.175  1.00  0.00     0.180 A 
ATOM      7  C   UNL     1      29.818  72.606  21.006  1.00  0.00     0.014 A 
ATOM      8  C   UNL     1      31.350  74.875  21.479  1.00  0.00     0.029 A 
ATOM      9  C   UNL     1      29.695  73.276  22.219  1.00  0.00     0.001 A 
ATOM     10  C   UNL     1      30.462  74.412  22.456  1.00  0.00     0.002 A 
ENDROOT
BRANCH   4  11
ATOM     11  N   UNL     1      30.130  71.290  18.497  1.00  0.00    -0.340 N 
ATOM     12  H   UNL     1      29.238  71.231  19.007  1.00  0.00     0.168 HD
BRANCH  11  13
ATOM     13  C   UNL     1      30.366  70.205  17.638  1.00  0.00     0.040 A 
ATOM     14  C   UNL     1      29.839  70.220  16.336  1.00  0.00     0.038 A 
ATOM     15  C   UNL     1      31.121  69.112  18.083  1.00  0.00     0.028 A 
ATOM     16  C   UNL     1      30.085  69.124  15.492  1.00  0.00     0.022 A 
ATOM     17  C   UNL     1      31.374  68.014  17.255  1.00  0.00     0.030 A 
ATOM     18  C   UNL     1      30.839  68.056  15.965  1.00  0.00     0.065 A 
ATOM     19  C   UNL     1      29.753  68.759  14.170  1.00  0.00     0.143 A 
ATOM     20  N   UNL     1      30.898  67.167  14.926  1.00  0.00    -0.278 N 
ATOM     21  N   UNL     1      30.246  67.568  13.822  1.00  0.00    -0.183 NA
ATOM     22  H   UNL     1      31.398  66.269  14.985  1.00  0.00     0.190 HD
ENDBRANCH  11  13
ENDBRANCH   4  11
BRANCH   6  23
ATOM     23  C   UNL     1      33.348  74.485  17.188  1.00  0.00     0.108 A 
ATOM     24  N   UNL     1      33.617  73.633  16.173  1.00  0.00    -0.250 NA
ATOM     25  C   UNL     1      33.903  75.752  17.299  1.00  0.00     0.032 A 
ATOM     26  C   UNL     1      34.481  74.071  15.229  1.00  0.00     0.038 A 
ATOM     27  C   UNL     1      34.787  76.167  16.310  1.00  0.00     0.004 A 
ATOM     28  C   UNL     1      35.086  75.317  15.251  1.00  0.00     0.023 A 
ATOM     29  C   UNL     1      34.780  73.132  14.109  1.00  0.00     0.067 C 
ENDBRANCH   6  23
TORSDOF 3
ENDMDL
MODEL 9
REMARK VINA RESULT:    -7.734      3.266      5.990
REMARK INTER + INTRA:          -9.965
REMARK INTER:                  -9.125
REMARK INTRA:                  -0.839
REMARK UNBOUND:                -0.874
REMARK SMILES Cc1cccc(-c2nc(Nc3ccc4[nH]ncc4c3)c3ccccc3n2)n1
REMARK SMILES IDX 8 1 26 2 20 3 9 4 25 5 7 6 21 7 24 8 22 9 23 10 10 11 11 13
REMARK SMILES IDX 19 14 12 15 18 16 13 17 14 18 17 19 15 20 16 21 6 23 27 24
REMARK SMILES IDX 5 25 2 26 4 27 3 28 1 29
REMARK H PARENT 10 12 15 22
ROOT
ATOM      1  N   UNL     1      32.485  73.117  18.626  1.00  0.00    -0.209 NA
ATOM      2  N   UNL     1      30.520  72.085  19.563  1.00  0.00    -0.226 NA
ATOM      3  C   UNL     1      31.539  73.938  20.693  1.00  0.00     0.043 A 
ATOM      4  C   UNL     1      32.483  73.966  19.670  1.00  0.00     0.142 A 
ATOM      5  C   UNL     1      30.547  72.949  20.593  1.00  0.00     0.077 A 
ATOM      6  C   UNL     1      31.490  72.215  18.636  1.00  0.00     0.180 A 
ATOM      7  C   UNL     1      31.558  74.836  21.775  1.00  0.00     0.014 A 
ATOM      8  C   UNL     1      29.585  72.888  21.598  1.00  0.00     0.029 A 
ATOM      9  C   UNL     1      30.585  74.753  22.765  1.00  0.00     0.001 A 
ATOM     10  C   UNL     1      29.597  73.778  22.676  1.00  0.00     0.002 A 
ENDROOT
BRANCH   4  11
ATOM     11  N   UNL     1      33.514  74.938  19.703  1.00  0.00    -0.340 N 
ATOM     12  H   UNL     1      34.308  74.680  20.306  1.00  0.00     0.168 HD
BRANCH  11  13
ATOM     13  C   UNL     1      33.663  76.183  19.072  1.00  0.00     0.040 A 
ATOM     14  C   UNL     1      33.645  77.360  19.839  1.00  0.00     0.038 A 
ATOM     15  C   UNL     1      33.827  76.248  17.683  1.00  0.00     0.028 A 
ATOM     16  C   UNL     1      33.794  78.596  19.189  1.00  0.00     0.022 A 
ATOM     17  C   UNL     1      33.977  77.470  17.020  1.00  0.00     0.030 A 
ATOM     18  C   UNL     1      33.956  78.624  17.808  1.00  0.00     0.065 A 
ATOM     19  C   UNL     1      33.833  79.954  19.573  1.00  0.00     0.143 A 
ATOM     20  N   UNL     1      34.073  79.949  17.485  1.00  0.00    -0.278 N 
ATOM     21  N   UNL     1      34.002  80.780  18.538  1.00  0.00    -0.183 NA
ATOM     22  H   UNL     1      34.205  80.280  16.519  1.00  0.00     0.190 HD
ENDBRANCH  11  13
ENDBRANCH   4  11
BRANCH   6  23
ATOM     23  C   UNL     1      31.454  71.287  17.536  1.00  0.00     0.108 A 
ATOM     24  N   UNL     1      30.357  71.370  16.750  1.00  0.00    -0.250 NA
ATOM     25  C   UNL     1      32.487  70.383  17.326  1.00  0.00     0.032 A 
ATOM     26  C   UNL     1      30.294  70.510  15.708  1.00  0.00     0.038 A 
ATOM     27  C   UNL     1      32.386  69.515  16.246  1.00  0.00     0.004 A 
ATOM     28  C   UNL     1      31.271  69.573  15.415  1.00  0.00     0.023 A 
ATOM     29  C   UNL     1      29.084  70.600  14.840  1.00  0.00     0.067 C 
ENDBRANCH   6  23
TORSDOF 3
ENDMDL
