MODEL 1
REMARK VINA RESULT:    -9.036      0.000      0.000
REMARK INTER + INTRA:          -9.036
REMARK INTER:                  -9.036
REMARK INTRA:                   0.000
REMARK UNBOUND:                 0.000
REMARK SMILES C[n+]1cc2c3c(ccc2c2ccc4cc5c(cc4c21)OCO5)OCO3
REMARK SMILES IDX 25 1 23 2 20 3 22 4 2 5 19 6 10 7 9 8 18 9 4 10 13 11 3 12
REMARK SMILES IDX 5 13 11 14 12 15 17 16 8 17 6 18 14 19 16 20 15 21 1 22 7 23
REMARK SMILES IDX 24 24 21 25
REMARK H PARENT
ROOT
ATOM      1  O   UNL     1      33.413  76.764  20.823  1.00  0.00    -0.453 OA
ATOM      2  O   UNL     1      32.167  77.590  22.706  1.00  0.00    -0.454 OA
ATOM      3  O   UNL     1      32.129  68.904  15.727  1.00  0.00    -0.454 OA
ATOM      4  O   UNL     1      30.262  67.593  16.498  1.00  0.00    -0.454 OA
ATOM      5  N   UNL     1      32.429  73.118  18.841  1.00  0.00    -0.200 N 
ATOM      6  C   UNL     1      31.394  72.337  19.220  1.00  0.00     0.220 A 
ATOM      7  C   UNL     1      30.612  72.769  20.330  1.00  0.00     0.055 A 
ATOM      8  C   UNL     1      30.943  73.996  20.998  1.00  0.00     0.006 A 
ATOM      9  C   UNL     1      31.109  71.123  18.519  1.00  0.00     0.058 A 
ATOM     10  C   UNL     1      32.045  74.741  20.523  1.00  0.00     0.092 A 
ATOM     11  C   UNL     1      30.008  70.330  18.955  1.00  0.00    -0.008 A 
ATOM     12  C   UNL     1      32.765  74.264  19.436  1.00  0.00     0.321 A 
ATOM     13  C   UNL     1      32.382  75.935  21.159  1.00  0.00     0.179 A 
ATOM     14  C   UNL     1      29.538  71.941  20.712  1.00  0.00     0.016 A 
ATOM     15  C   UNL     1      29.244  70.752  20.042  1.00  0.00     0.010 A 
ATOM     16  C   UNL     1      31.858  70.656  17.408  1.00  0.00     0.066 A 
ATOM     17  C   UNL     1      30.235  74.531  22.120  1.00  0.00     0.014 A 
ATOM     18  C   UNL     1      31.675  76.413  22.235  1.00  0.00     0.166 A 
ATOM     19  C   UNL     1      29.680  69.125  18.306  1.00  0.00     0.059 A 
ATOM     20  C   UNL     1      31.504  69.468  16.797  1.00  0.00     0.166 A 
ATOM     21  C   UNL     1      30.443  68.724  17.234  1.00  0.00     0.166 A 
ATOM     22  C   UNL     1      33.367  72.878  17.745  1.00  0.00     0.440 C 
ATOM     23  C   UNL     1      30.594  75.734  22.740  1.00  0.00     0.051 A 
ATOM     24  C   UNL     1      33.269  77.808  21.806  1.00  0.00     0.468 C 
ATOM     25  C   UNL     1      31.336  67.714  15.544  1.00  0.00     0.468 C 
ENDROOT
TORSDOF 0
ENDMDL
MODEL 2
REMARK VINA RESULT:    -8.789      0.678      7.302
REMARK INTER + INTRA:          -8.789
REMARK INTER:                  -8.789
REMARK INTRA:                   0.000
REMARK UNBOUND:                 0.000
REMARK SMILES C[n+]1cc2c3c(ccc2c2ccc4cc5c(cc4c21)OCO5)OCO3
REMARK SMILES IDX 25 1 23 2 20 3 22 4 2 5 19 6 10 7 9 8 18 9 4 10 13 11 3 12
REMARK SMILES IDX 5 13 11 14 12 15 17 16 8 17 6 18 14 19 16 20 15 21 1 22 7 23
REMARK SMILES IDX 24 24 21 25
REMARK H PARENT
ROOT
ATOM      1  O   UNL     1      32.236  69.408  16.035  1.00  0.00    -0.453 OA
ATOM      2  O   UNL     1      30.592  67.683  16.359  1.00  0.00    -0.454 OA
ATOM      3  O   UNL     1      33.640  77.383  20.916  1.00  0.00    -0.454 OA
ATOM      4  O   UNL     1      32.078  77.650  22.728  1.00  0.00    -0.454 OA
ATOM      5  N   UNL     1      32.464  72.858  18.533  1.00  0.00    -0.200 N 
ATOM      6  C   UNL     1      31.621  73.067  19.568  1.00  0.00     0.220 A 
ATOM      7  C   UNL     1      30.622  72.082  19.817  1.00  0.00     0.055 A 
ATOM      8  C   UNL     1      30.544  70.920  18.976  1.00  0.00     0.006 A 
ATOM      9  C   UNL     1      31.743  74.242  20.373  1.00  0.00     0.058 A 
ATOM     10  C   UNL     1      31.474  70.795  17.920  1.00  0.00     0.092 A 
ATOM     11  C   UNL     1      30.831  74.423  21.454  1.00  0.00    -0.008 A 
ATOM     12  C   UNL     1      32.422  71.791  17.733  1.00  0.00     0.321 A 
ATOM     13  C   UNL     1      31.415  69.674  17.092  1.00  0.00     0.179 A 
ATOM     14  C   UNL     1      29.752  72.318  20.898  1.00  0.00     0.016 A 
ATOM     15  C   UNL     1      29.852  73.460  21.696  1.00  0.00     0.010 A 
ATOM     16  C   UNL     1      32.723  75.248  20.165  1.00  0.00     0.066 A 
ATOM     17  C   UNL     1      29.588  69.867  19.126  1.00  0.00     0.014 A 
ATOM     18  C   UNL     1      30.478  68.685  17.271  1.00  0.00     0.166 A 
ATOM     19  C   UNL     1      30.900  75.560  22.280  1.00  0.00     0.059 A 
ATOM     20  C   UNL     1      32.760  76.349  20.998  1.00  0.00     0.166 A 
ATOM     21  C   UNL     1      31.872  76.501  22.028  1.00  0.00     0.166 A 
ATOM     22  C   UNL     1      33.554  73.725  18.086  1.00  0.00     0.440 C 
ATOM     23  C   UNL     1      29.550  68.752  18.281  1.00  0.00     0.051 A 
ATOM     24  C   UNL     1      31.709  68.147  15.578  1.00  0.00     0.468 C 
ATOM     25  C   UNL     1      33.202  78.205  22.016  1.00  0.00     0.468 C 
ENDROOT
TORSDOF 0
ENDMDL
MODEL 3
REMARK VINA RESULT:    -8.763      1.113      1.113
REMARK INTER + INTRA:          -8.763
REMARK INTER:                  -8.763
REMARK INTRA:                   0.000
REMARK UNBOUND:                 0.000
REMARK SMILES C[n+]1cc2c3c(ccc2c2ccc4cc5c(cc4c21)OCO5)OCO3
REMARK SMILES IDX 25 1 23 2 20 3 22 4 2 5 19 6 10 7 9 8 18 9 4 10 13 11 3 12
REMARK SMILES IDX 5 13 11 14 12 15 17 16 8 17 6 18 14 19 16 20 15 21 1 22 7 23
REMARK SMILES IDX 24 24 21 25
REMARK H PARENT
ROOT
ATOM      1  O   UNL     1      33.212  76.958  20.441  1.00  0.00    -0.453 OA
ATOM      2  O   UNL     1      32.498  77.235  22.720  1.00  0.00    -0.454 OA
ATOM      3  O   UNL     1      31.098  70.129  14.253  1.00  0.00    -0.454 OA
ATOM      4  O   UNL     1      29.628  68.462  15.178  1.00  0.00    -0.454 OA
ATOM      5  N   UNL     1      31.969  73.666  18.031  1.00  0.00    -0.200 N 
ATOM      6  C   UNL     1      31.144  72.698  18.486  1.00  0.00     0.220 A 
ATOM      7  C   UNL     1      30.681  72.802  19.830  1.00  0.00     0.055 A 
ATOM      8  C   UNL     1      31.099  73.910  20.642  1.00  0.00     0.006 A 
ATOM      9  C   UNL     1      30.759  71.616  17.634  1.00  0.00     0.058 A 
ATOM     10  C   UNL     1      31.965  74.870  20.071  1.00  0.00     0.092 A 
ATOM     11  C   UNL     1      29.888  70.616  18.157  1.00  0.00    -0.008 A 
ATOM     12  C   UNL     1      32.377  74.709  18.756  1.00  0.00     0.321 A 
ATOM     13  C   UNL     1      32.382  75.953  20.844  1.00  0.00     0.179 A 
ATOM     14  C   UNL     1      29.823  71.783  20.287  1.00  0.00     0.016 A 
ATOM     15  C   UNL     1      29.437  70.717  19.473  1.00  0.00     0.010 A 
ATOM     16  C   UNL     1      31.192  71.473  16.291  1.00  0.00     0.066 A 
ATOM     17  C   UNL     1      30.704  74.121  22.001  1.00  0.00     0.014 A 
ATOM     18  C   UNL     1      31.978  76.117  22.146  1.00  0.00     0.166 A 
ATOM     19  C   UNL     1      29.476  69.527  17.368  1.00  0.00     0.059 A 
ATOM     20  C   UNL     1      30.766  70.390  15.546  1.00  0.00     0.166 A 
ATOM     21  C   UNL     1      29.929  69.443  16.071  1.00  0.00     0.166 A 
ATOM     22  C   UNL     1      32.571  73.766  16.702  1.00  0.00     0.440 C 
ATOM     23  C   UNL     1      31.138  75.218  22.754  1.00  0.00     0.051 A 
ATOM     24  C   UNL     1      33.279  77.765  21.633  1.00  0.00     0.468 C 
ATOM     25  C   UNL     1      30.374  68.904  14.025  1.00  0.00     0.468 C 
ENDROOT
TORSDOF 0
ENDMDL
MODEL 4
REMARK VINA RESULT:    -8.502      1.236      1.872
REMARK INTER + INTRA:          -8.502
REMARK INTER:                  -8.502
REMARK INTRA:                   0.000
REMARK UNBOUND:                 0.000
REMARK SMILES C[n+]1cc2c3c(ccc2c2ccc4cc5c(cc4c21)OCO5)OCO3
REMARK SMILES IDX 25 1 23 2 20 3 22 4 2 5 19 6 10 7 9 8 18 9 4 10 13 11 3 12
REMARK SMILES IDX 5 13 11 14 12 15 17 16 8 17 6 18 14 19 16 20 15 21 1 22 7 23
REMARK SMILES IDX 24 24 21 25
REMARK H PARENT
ROOT
ATOM      1  O   UNL     1      34.031  78.129  19.781  1.00  0.00    -0.453 OA
ATOM      2  O   UNL     1      33.314  79.434  21.669  1.00  0.00    -0.454 OA
ATOM      3  O   UNL     1      31.212  69.555  16.964  1.00  0.00    -0.454 OA
ATOM      4  O   UNL     1      29.532  68.610  18.406  1.00  0.00    -0.454 OA
ATOM      5  N   UNL     1      32.439  74.265  18.924  1.00  0.00    -0.200 N 
ATOM      6  C   UNL     1      31.494  73.679  19.690  1.00  0.00     0.220 A 
ATOM      7  C   UNL     1      31.023  74.399  20.826  1.00  0.00     0.055 A 
ATOM      8  C   UNL     1      31.558  75.700  21.116  1.00  0.00     0.006 A 
ATOM      9  C   UNL     1      30.995  72.381  19.356  1.00  0.00     0.058 A 
ATOM     10  C   UNL     1      32.545  76.225  20.251  1.00  0.00     0.092 A 
ATOM     11  C   UNL     1      29.999  71.800  20.194  1.00  0.00    -0.008 A 
ATOM     12  C   UNL     1      32.959  75.472  19.162  1.00  0.00     0.321 A 
ATOM     13  C   UNL     1      33.076  77.487  20.515  1.00  0.00     0.179 A 
ATOM     14  C   UNL     1      30.038  73.771  21.613  1.00  0.00     0.016 A 
ATOM     15  C   UNL     1      29.539  72.504  21.306  1.00  0.00     0.010 A 
ATOM     16  C   UNL     1      31.432  71.629  18.235  1.00  0.00     0.066 A 
ATOM     17  C   UNL     1      31.166  76.516  22.223  1.00  0.00     0.014 A 
ATOM     18  C   UNL     1      32.672  78.237  21.592  1.00  0.00     0.166 A 
ATOM     19  C   UNL     1      29.471  70.525  19.918  1.00  0.00     0.059 A 
ATOM     20  C   UNL     1      30.890  70.381  17.996  1.00  0.00     0.166 A 
ATOM     21  C   UNL     1      29.935  69.844  18.815  1.00  0.00     0.166 A 
ATOM     22  C   UNL     1      33.074  73.721  17.724  1.00  0.00     0.440 C 
ATOM     23  C   UNL     1      31.717  77.780  22.466  1.00  0.00     0.051 A 
ATOM     24  C   UNL     1      34.174  79.360  20.517  1.00  0.00     0.468 C 
ATOM     25  C   UNL     1      30.348  68.432  17.230  1.00  0.00     0.468 C 
ENDROOT
TORSDOF 0
ENDMDL
MODEL 5
REMARK VINA RESULT:    -8.282      1.504      7.480
REMARK INTER + INTRA:          -8.282
REMARK INTER:                  -8.282
REMARK INTRA:                   0.000
REMARK UNBOUND:                 0.000
REMARK SMILES C[n+]1cc2c3c(ccc2c2ccc4cc5c(cc4c21)OCO5)OCO3
REMARK SMILES IDX 25 1 23 2 20 3 22 4 2 5 19 6 10 7 9 8 18 9 4 10 13 11 3 12
REMARK SMILES IDX 5 13 11 14 12 15 17 16 8 17 6 18 14 19 16 20 15 21 1 22 7 23
REMARK SMILES IDX 24 24 21 25
REMARK H PARENT
ROOT
ATOM      1  O   UNL     1      31.146  70.494  17.534  1.00  0.00    -0.453 OA
ATOM      2  O   UNL     1      29.546  69.126  18.695  1.00  0.00    -0.454 OA
ATOM      3  O   UNL     1      34.415  79.098  19.699  1.00  0.00    -0.454 OA
ATOM      4  O   UNL     1      33.448  79.976  21.721  1.00  0.00    -0.454 OA
ATOM      5  N   UNL     1      32.307  74.354  18.928  1.00  0.00    -0.200 N 
ATOM      6  C   UNL     1      31.805  74.904  20.056  1.00  0.00     0.220 A 
ATOM      7  C   UNL     1      30.851  74.146  20.794  1.00  0.00     0.055 A 
ATOM      8  C   UNL     1      30.460  72.846  20.325  1.00  0.00     0.006 A 
ATOM      9  C   UNL     1      32.230  76.203  20.477  1.00  0.00     0.058 A 
ATOM     10  C   UNL     1      31.044  72.361  19.134  1.00  0.00     0.092 A 
ATOM     11  C   UNL     1      31.674  76.745  21.673  1.00  0.00    -0.008 A 
ATOM     12  C   UNL     1      31.968  73.150  18.464  1.00  0.00     0.321 A 
ATOM     13  C   UNL     1      30.677  71.101  18.663  1.00  0.00     0.179 A 
ATOM     14  C   UNL     1      30.339  74.736  21.966  1.00  0.00     0.016 A 
ATOM     15  C   UNL     1      30.739  76.003  22.394  1.00  0.00     0.010 A 
ATOM     16  C   UNL     1      33.178  76.993  19.777  1.00  0.00     0.066 A 
ATOM     17  C   UNL     1      29.515  71.994  20.978  1.00  0.00     0.014 A 
ATOM     18  C   UNL     1      29.763  70.314  19.320  1.00  0.00     0.166 A 
ATOM     19  C   UNL     1      32.051  78.019  22.137  1.00  0.00     0.059 A 
ATOM     20  C   UNL     1      33.524  78.239  20.264  1.00  0.00     0.166 A 
ATOM     21  C   UNL     1      32.975  78.737  21.414  1.00  0.00     0.166 A 
ATOM     22  C   UNL     1      33.283  74.942  18.012  1.00  0.00     0.440 C 
ATOM     23  C   UNL     1      29.164  70.732  20.483  1.00  0.00     0.051 A 
ATOM     24  C   UNL     1      30.427  69.246  17.563  1.00  0.00     0.468 C 
ATOM     25  C   UNL     1      34.362  80.199  20.628  1.00  0.00     0.468 C 
ENDROOT
TORSDOF 0
ENDMDL
MODEL 6
REMARK VINA RESULT:    -8.211      1.796      2.491
REMARK INTER + INTRA:          -8.211
REMARK INTER:                  -8.211
REMARK INTRA:                   0.000
REMARK UNBOUND:                 0.000
REMARK SMILES C[n+]1cc2c3c(ccc2c2ccc4cc5c(cc4c21)OCO5)OCO3
REMARK SMILES IDX 25 1 23 2 20 3 22 4 2 5 19 6 10 7 9 8 18 9 4 10 13 11 3 12
REMARK SMILES IDX 5 13 11 14 12 15 17 16 8 17 6 18 14 19 16 20 15 21 1 22 7 23
REMARK SMILES IDX 24 24 21 25
REMARK H PARENT
ROOT
ATOM      1  O   UNL     1      32.367  76.997  21.446  1.00  0.00    -0.453 OA
ATOM      2  O   UNL     1      30.661  76.663  23.108  1.00  0.00    -0.454 OA
ATOM      3  O   UNL     1      35.005  71.381  14.311  1.00  0.00    -0.454 OA
ATOM      4  O   UNL     1      33.735  69.337  14.220  1.00  0.00    -0.454 OA
ATOM      5  N   UNL     1      33.189  74.131  18.395  1.00  0.00    -0.200 N 
ATOM      6  C   UNL     1      32.512  72.967  18.285  1.00  0.00     0.220 A 
ATOM      7  C   UNL     1      31.486  72.706  19.239  1.00  0.00     0.055 A 
ATOM      8  C   UNL     1      31.208  73.670  20.266  1.00  0.00     0.006 A 
ATOM      9  C   UNL     1      32.830  72.042  17.242  1.00  0.00     0.058 A 
ATOM     10  C   UNL     1      31.973  74.858  20.294  1.00  0.00     0.092 A 
ATOM     11  C   UNL     1      32.091  70.825  17.165  1.00  0.00    -0.008 A 
ATOM     12  C   UNL     1      32.958  75.050  19.335  1.00  0.00     0.321 A 
ATOM     13  C   UNL     1      31.718  75.806  21.284  1.00  0.00     0.179 A 
ATOM     14  C   UNL     1      30.792  71.487  19.109  1.00  0.00     0.016 A 
ATOM     15  C   UNL     1      31.088  70.569  18.099  1.00  0.00     0.010 A 
ATOM     16  C   UNL     1      33.840  72.259  16.270  1.00  0.00     0.066 A 
ATOM     17  C   UNL     1      30.206  73.521  21.276  1.00  0.00     0.014 A 
ATOM     18  C   UNL     1      30.746  75.623  22.237  1.00  0.00     0.166 A 
ATOM     19  C   UNL     1      32.359  69.875  16.163  1.00  0.00     0.059 A 
ATOM     20  C   UNL     1      34.074  71.304  15.300  1.00  0.00     0.166 A 
ATOM     21  C   UNL     1      33.352  70.143  15.248  1.00  0.00     0.166 A 
ATOM     22  C   UNL     1      34.278  74.608  17.544  1.00  0.00     0.440 C 
ATOM     23  C   UNL     1      29.971  74.490  22.259  1.00  0.00     0.051 A 
ATOM     24  C   UNL     1      31.691  77.532  22.600  1.00  0.00     0.468 C 
ATOM     25  C   UNL     1      34.785  70.130  13.630  1.00  0.00     0.468 C 
ENDROOT
TORSDOF 0
ENDMDL
MODEL 7
REMARK VINA RESULT:    -8.001      1.366      7.858
REMARK INTER + INTRA:          -8.001
REMARK INTER:                  -8.001
REMARK INTRA:                   0.000
REMARK UNBOUND:                 0.000
REMARK SMILES C[n+]1cc2c3c(ccc2c2ccc4cc5c(cc4c21)OCO5)OCO3
REMARK SMILES IDX 25 1 23 2 20 3 22 4 2 5 19 6 10 7 9 8 18 9 4 10 13 11 3 12
REMARK SMILES IDX 5 13 11 14 12 15 17 16 8 17 6 18 14 19 16 20 15 21 1 22 7 23
REMARK SMILES IDX 24 24 21 25
REMARK H PARENT
ROOT
ATOM      1  O   UNL     1      30.434  67.816  16.518  1.00  0.00    -0.453 OA
ATOM      2  O   UNL     1      32.088  67.231  14.874  1.00  0.00    -0.454 OA
ATOM      3  O   UNL     1      30.096  75.262  22.335  1.00  0.00    -0.454 OA
ATOM      4  O   UNL     1      31.982  76.735  22.069  1.00  0.00    -0.454 OA
ATOM      5  N   UNL     1      30.734  71.324  18.926  1.00  0.00    -0.200 N 
ATOM      6  C   UNL     1      31.763  72.193  18.825  1.00  0.00     0.220 A 
ATOM      7  C   UNL     1      32.780  71.907  17.868  1.00  0.00     0.055 A 
ATOM      8  C   UNL     1      32.679  70.726  17.057  1.00  0.00     0.006 A 
ATOM      9  C   UNL     1      31.814  73.354  19.658  1.00  0.00     0.058 A 
ATOM     10  C   UNL     1      31.562  69.881  17.240  1.00  0.00     0.092 A 
ATOM     11  C   UNL     1      32.919  74.243  19.519  1.00  0.00    -0.008 A 
ATOM     12  C   UNL     1      30.608  70.219  18.189  1.00  0.00     0.321 A 
ATOM     13  C   UNL     1      31.447  68.730  16.461  1.00  0.00     0.179 A 
ATOM     14  C   UNL     1      33.845  72.823  17.778  1.00  0.00     0.016 A 
ATOM     15  C   UNL     1      33.914  73.962  18.583  1.00  0.00     0.010 A 
ATOM     16  C   UNL     1      30.825  73.682  20.622  1.00  0.00     0.066 A 
ATOM     17  C   UNL     1      33.633  70.333  16.066  1.00  0.00     0.014 A 
ATOM     18  C   UNL     1      32.387  68.388  15.521  1.00  0.00     0.166 A 
ATOM     19  C   UNL     1      33.025  75.401  20.311  1.00  0.00     0.059 A 
ATOM     20  C   UNL     1      30.963  74.827  21.381  1.00  0.00     0.166 A 
ATOM     21  C   UNL     1      32.034  75.665  21.229  1.00  0.00     0.166 A 
ATOM     22  C   UNL     1      29.590  71.405  19.833  1.00  0.00     0.440 C 
ATOM     23  C   UNL     1      33.494  69.171  15.298  1.00  0.00     0.051 A 
ATOM     24  C   UNL     1      30.847  66.873  15.510  1.00  0.00     0.468 C 
ATOM     25  C   UNL     1      30.748  76.473  22.768  1.00  0.00     0.468 C 
ENDROOT
TORSDOF 0
ENDMDL
MODEL 8
REMARK VINA RESULT:    -7.815      1.923      2.899
REMARK INTER + INTRA:          -7.815
REMARK INTER:                  -7.815
REMARK INTRA:                   0.000
REMARK UNBOUND:                 0.000
REMARK SMILES C[n+]1cc2c3c(ccc2c2ccc4cc5c(cc4c21)OCO5)OCO3
REMARK SMILES IDX 25 1 23 2 20 3 22 4 2 5 19 6 10 7 9 8 18 9 4 10 13 11 3 12
REMARK SMILES IDX 5 13 11 14 12 15 17 16 8 17 6 18 14 19 16 20 15 21 1 22 7 23
REMARK SMILES IDX 24 24 21 25
REMARK H PARENT
ROOT
ATOM      1  O   UNL     1      29.397  76.512  21.557  1.00  0.00    -0.453 OA
ATOM      2  O   UNL     1      31.262  77.398  22.790  1.00  0.00    -0.454 OA
ATOM      3  O   UNL     1      29.221  69.813  14.887  1.00  0.00    -0.454 OA
ATOM      4  O   UNL     1      31.406  68.920  14.411  1.00  0.00    -0.454 OA
ATOM      5  N   UNL     1      29.836  73.457  18.612  1.00  0.00    -0.200 N 
ATOM      6  C   UNL     1      31.032  72.912  18.299  1.00  0.00     0.220 A 
ATOM      7  C   UNL     1      32.180  73.390  18.994  1.00  0.00     0.055 A 
ATOM      8  C   UNL     1      32.033  74.419  19.986  1.00  0.00     0.006 A 
ATOM      9  C   UNL     1      31.121  71.890  17.303  1.00  0.00     0.058 A 
ATOM     10  C   UNL     1      30.738  74.924  20.239  1.00  0.00     0.092 A 
ATOM     11  C   UNL     1      32.403  71.343  17.003  1.00  0.00    -0.008 A 
ATOM     12  C   UNL     1      29.662  74.413  19.528  1.00  0.00     0.321 A 
ATOM     13  C   UNL     1      30.575  75.923  21.199  1.00  0.00     0.179 A 
ATOM     14  C   UNL     1      33.417  72.810  18.653  1.00  0.00     0.016 A 
ATOM     15  C   UNL     1      33.527  71.813  17.682  1.00  0.00     0.010 A 
ATOM     16  C   UNL     1      30.006  71.380  16.588  1.00  0.00     0.066 A 
ATOM     17  C   UNL     1      33.108  74.979  20.746  1.00  0.00     0.014 A 
ATOM     18  C   UNL     1      31.636  76.434  21.907  1.00  0.00     0.166 A 
ATOM     19  C   UNL     1      32.555  70.337  16.032  1.00  0.00     0.059 A 
ATOM     20  C   UNL     1      30.194  70.391  15.642  1.00  0.00     0.166 A 
ATOM     21  C   UNL     1      31.436  69.883  15.372  1.00  0.00     0.166 A 
ATOM     22  C   UNL     1      28.533  73.134  18.032  1.00  0.00     0.440 C 
ATOM     23  C   UNL     1      32.916  75.982  21.704  1.00  0.00     0.051 A 
ATOM     24  C   UNL     1      29.841  77.442  22.564  1.00  0.00     0.468 C 
ATOM     25  C   UNL     1      29.996  68.881  14.107  1.00  0.00     0.468 C 
ENDROOT
TORSDOF 0
ENDMDL
MODEL 9
REMARK VINA RESULT:    -7.601      1.605      2.484
REMARK INTER + INTRA:          -7.601
REMARK INTER:                  -7.601
REMARK INTRA:                   0.000
REMARK UNBOUND:                 0.000
REMARK SMILES C[n+]1cc2c3c(ccc2c2ccc4cc5c(cc4c21)OCO5)OCO3
REMARK SMILES IDX 25 1 23 2 20 3 22 4 2 5 19 6 10 7 9 8 18 9 4 10 13 11 3 12
REMARK SMILES IDX 5 13 11 14 12 15 17 16 8 17 6 18 14 19 16 20 15 21 1 22 7 23
REMARK SMILES IDX 24 24 21 25
REMARK H PARENT
ROOT
ATOM      1  O   UNL     1      34.345  79.111  19.727  1.00  0.00    -0.453 OA
ATOM      2  O   UNL     1      33.401  80.270  21.610  1.00  0.00    -0.454 OA
ATOM      3  O   UNL     1      32.509  70.432  16.455  1.00  0.00    -0.454 OA
ATOM      4  O   UNL     1      30.844  69.282  17.760  1.00  0.00    -0.454 OA
ATOM      5  N   UNL     1      33.174  75.155  18.644  1.00  0.00    -0.200 N 
ATOM      6  C   UNL     1      32.245  74.455  19.331  1.00  0.00     0.220 A 
ATOM      7  C   UNL     1      31.643  75.084  20.460  1.00  0.00     0.055 A 
ATOM      8  C   UNL     1      32.037  76.416  20.825  1.00  0.00     0.006 A 
ATOM      9  C   UNL     1      31.890  73.131  18.924  1.00  0.00     0.058 A 
ATOM     10  C   UNL     1      33.018  77.062  20.040  1.00  0.00     0.092 A 
ATOM     11  C   UNL     1      30.906  72.429  19.678  1.00  0.00    -0.008 A 
ATOM     12  C   UNL     1      33.564  76.393  18.954  1.00  0.00     0.321 A 
ATOM     13  C   UNL     1      33.414  78.356  20.379  1.00  0.00     0.179 A 
ATOM     14  C   UNL     1      30.678  74.338  21.163  1.00  0.00     0.016 A 
ATOM     15  C   UNL     1      30.319  73.044  20.783  1.00  0.00     0.010 A 
ATOM     16  C   UNL     1      32.460  72.466  17.807  1.00  0.00     0.066 A 
ATOM     17  C   UNL     1      31.507  77.148  21.933  1.00  0.00     0.014 A 
ATOM     18  C   UNL     1      32.880  79.024  21.454  1.00  0.00     0.166 A 
ATOM     19  C   UNL     1      30.517  71.123  19.328  1.00  0.00     0.059 A 
ATOM     20  C   UNL     1      32.052  71.184  17.493  1.00  0.00     0.166 A 
ATOM     21  C   UNL     1      31.105  70.530  18.234  1.00  0.00     0.166 A 
ATOM     22  C   UNL     1      33.925  74.718  17.468  1.00  0.00     0.440 C 
ATOM     23  C   UNL     1      31.922  78.447  22.251  1.00  0.00     0.051 A 
ATOM     24  C   UNL     1      34.329  80.320  20.511  1.00  0.00     0.468 C 
ATOM     25  C   UNL     1      31.739  69.226  16.631  1.00  0.00     0.468 C 
ENDROOT
TORSDOF 0
ENDMDL
