REMARK SMILES C[C@@]1(c2nc(NC(=O)c3ncc(C(F)(F)F)cc3Cl)ccc2F)CO[C@@](C)(C(F)(F)F)C(N)N1
REMARK SMILES IDX 5 1 20 2 21 3 22 4 3 5 4 6 23 7 6 8 7 9 8 10 9 12 18 13
REMARK SMILES IDX 17 14 12 15 10 16 11 17 19 18 13 19 14 20 15 21 16 22 2 23
REMARK SMILES IDX 34 24 24 25 32 26 25 27 26 28 1 29 27 31 33 32 28 35 29 36
REMARK SMILES IDX 30 37 31 38
REMARK H PARENT 6 11 34 30 33 33 33 34
ROOT
ATOM      1  C   UNL     1      28.883  77.173  20.927  1.00  0.00     0.133 A 
ATOM      2  C   UNL     1      29.810  77.775  21.807  1.00  0.00     0.050 A 
ATOM      3  C   UNL     1      30.600  76.938  22.590  1.00  0.00     0.045 A 
ATOM      4  C   UNL     1      30.442  75.565  22.486  1.00  0.00     0.146 A 
ATOM      5  C   UNL     1      29.440  75.004  21.647  1.00  0.00     0.101 A 
ATOM      6  N   UNL     1      28.709  75.858  20.915  1.00  0.00    -0.231 NA
ATOM      7  F   UNL     1      31.181  74.767  23.238  1.00  0.00    -0.205 F 
ENDROOT
BRANCH   1   8
ATOM      8  N   UNL     1      28.065  77.909  20.062  1.00  0.00    -0.305 N 
ATOM      9  C   UNL     1      28.064  79.229  19.860  1.00  0.00     0.276 C 
ATOM     10  O   UNL     1      28.723  80.045  20.499  1.00  0.00    -0.267 OA
ATOM     11  H   UNL     1      27.381  77.367  19.515  1.00  0.00     0.171 HD
BRANCH   9  12
ATOM     12  C   UNL     1      27.134  79.738  18.824  1.00  0.00     0.147 A 
ATOM     13  C   UNL     1      27.451  80.776  17.933  1.00  0.00     0.073 A 
ATOM     14  C   UNL     1      26.519  81.176  16.992  1.00  0.00     0.037 A 
ATOM     15  C   UNL     1      25.279  80.531  16.996  1.00  0.00     0.075 A 
ATOM     16  N   UNL     1      25.926  79.143  18.799  1.00  0.00    -0.249 NA
ATOM     17  C   UNL     1      25.014  79.520  17.901  1.00  0.00     0.125 A 
ATOM     18  Cl  UNL     1      29.031  81.550  17.940  1.00  0.00    -0.082 Cl
BRANCH  15  19
ATOM     19  C   UNL     1      24.216  80.928  16.020  1.00  0.00     0.417 C 
ATOM     20  F   UNL     1      23.024  80.950  16.618  1.00  0.00    -0.166 F 
ATOM     21  F   UNL     1      24.477  82.116  15.450  1.00  0.00    -0.166 F 
ATOM     22  F   UNL     1      24.139  79.964  15.088  1.00  0.00    -0.166 F 
ENDBRANCH  15  19
ENDBRANCH   9  12
ENDBRANCH   1   8
BRANCH   5  23
ATOM     23  C   UNL     1      29.163  73.501  21.515  1.00  0.00     0.086 C 
ATOM     24  N   UNL     1      27.980  73.295  20.674  1.00  0.00    -0.287 NA
ATOM     25  C   UNL     1      30.405  72.818  20.902  1.00  0.00     0.190 C 
ATOM     26  C   UNL     1      28.093  73.133  19.407  1.00  0.00     0.161 C 
ATOM     27  O   UNL     1      30.521  73.359  19.569  1.00  0.00    -0.360 OA
ATOM     28  C   UNL     1      29.436  73.180  18.651  1.00  0.00     0.188 C 
ATOM     29  C   UNL     1      28.825  72.929  22.925  1.00  0.00     0.038 C 
ATOM     30  H   UNL     1      27.505  72.455  21.036  1.00  0.00     0.125 HD
ATOM     31  C   UNL     1      29.505  74.379  17.650  1.00  0.00     0.056 C 
BRANCH  26  32
ATOM     32  N   UNL     1      26.976  72.933  18.727  1.00  0.00    -0.313 NA
ATOM     33  H   UNL     1      26.195  72.793  19.384  1.00  0.00     0.120 HD
ATOM     34  H   UNL     1      26.784  73.753  18.134  1.00  0.00     0.120 HD
ENDBRANCH  26  32
BRANCH  28  35
ATOM     35  C   UNL     1      29.733  71.833  17.970  1.00  0.00     0.420 C 
ATOM     36  F   UNL     1      28.919  71.728  16.899  1.00  0.00    -0.168 F 
ATOM     37  F   UNL     1      31.019  71.863  17.520  1.00  0.00    -0.168 F 
ATOM     38  F   UNL     1      29.511  70.806  18.826  1.00  0.00    -0.168 F 
ENDBRANCH  28  35
ENDBRANCH   5  23
TORSDOF 6
