REMARK SMILES COc1cc2c(cc1CC=C(C)C)C(=O)C[C@@H](c1ccc(O)cc1)O2
REMARK SMILES IDX 25 1 15 2 17 3 16 4 6 5 5 6 14 7 8 8 7 9 4 10 3 11 18 12
REMARK SMILES IDX 19 13 24 14 20 15 23 16 21 17 22 18 2 20 1 21 9 22 10 23
REMARK SMILES IDX 11 24 12 25 13 26
REMARK H PARENT 22 19
ROOT
ATOM      1  O   UNL     1      -1.354   0.727   0.048  1.00  0.00    -0.484 OA
ATOM      2  O   UNL     1       0.326  -2.750   1.435  1.00  0.00    -0.294 OA
ATOM      3  C   UNL     1      -2.002  -0.537  -0.165  1.00  0.00     0.211 C 
ATOM      4  C   UNL     1      -1.677  -1.516   0.962  1.00  0.00     0.131 C 
ATOM      5  C   UNL     1       0.638  -0.550   0.636  1.00  0.00     0.060 A 
ATOM      6  C   UNL     1       0.005   0.613   0.190  1.00  0.00     0.134 A 
ATOM      7  C   UNL     1      -0.185  -1.713   1.027  1.00  0.00     0.170 C 
ATOM      8  C   UNL     1       2.785   0.533   0.432  1.00  0.00    -0.001 A 
ATOM      9  C   UNL     1       2.030  -0.596   0.752  1.00  0.00     0.023 A 
ATOM     10  C   UNL     1       0.763   1.745  -0.109  1.00  0.00     0.094 A 
ATOM     11  C   UNL     1       2.153   1.703   0.008  1.00  0.00     0.126 A 
ENDROOT
BRANCH   3  12
ATOM     12  C   UNL     1      -3.494  -0.299  -0.267  1.00  0.00    -0.007 A 
ATOM     13  C   UNL     1      -4.166  -0.590  -1.453  1.00  0.00     0.011 A 
ATOM     14  C   UNL     1      -4.195   0.211   0.826  1.00  0.00     0.011 A 
ATOM     15  C   UNL     1      -5.540  -0.371  -1.548  1.00  0.00     0.046 A 
ATOM     16  C   UNL     1      -5.569   0.430   0.731  1.00  0.00     0.046 A 
ATOM     17  C   UNL     1      -6.242   0.139  -0.455  1.00  0.00     0.115 A 
BRANCH  17  18
ATOM     18  O   UNL     1      -7.583   0.353  -0.548  1.00  0.00    -0.508 OA
ATOM     19  H   UNL     1      -8.081   0.715   0.227  1.00  0.00     0.293 HD
ENDBRANCH  17  18
ENDBRANCH   3  12
BRANCH  11  20
ATOM     20  O   UNL     1       2.880   2.814  -0.299  1.00  0.00    -0.496 OA
ATOM     21  C   UNL     1       3.137   3.732   0.761  1.00  0.00     0.278 C 
ENDBRANCH  11  20
BRANCH   8  22
ATOM     22  C   UNL     1       4.272   0.475   0.560  1.00  0.00     0.066 C 
BRANCH  22  23
ATOM     23  C   UNL     1       4.951   0.016  -0.707  1.00  0.00    -0.023 C 
ATOM     24  C   UNL     1       5.715  -1.078  -0.889  1.00  0.00    -0.080 C 
ATOM     25  C   UNL     1       6.363  -1.477  -2.184  1.00  0.00     0.039 C 
ATOM     26  C   UNL     1       5.988  -2.016   0.256  1.00  0.00     0.039 C 
ENDBRANCH  22  23
ENDBRANCH   8  22
TORSDOF 5
