REMARK SMILES O=C(CCCc1ccc(N(CCCl)CCCl)cc1)OCCN1C(=O)C=CC1=O
REMARK SMILES IDX 4 1 5 2 6 3 9 4 8 5 17 6 7 7 18 8 10 9 11 10 12 11 13 12
REMARK SMILES IDX 14 13 15 14 16 15 3 16 2 17 1 18 19 19 20 20 21 21 22 22
REMARK SMILES IDX 23 23 27 24 24 25 25 26 28 27 26 28
REMARK H PARENT
ROOT
ATOM      1  C   UNL     1      -1.106  -3.946   0.381  1.00  0.00     0.016 C 
ENDROOT
BRANCH   1   2
ATOM      2  C   UNL     1      -0.295  -3.530  -0.855  1.00  0.00     0.036 C 
BRANCH   2   3
ATOM      3  C   UNL     1       0.717  -2.442  -0.604  1.00  0.00    -0.048 A 
ATOM      4  C   UNL     1       2.590  -0.427  -0.140  1.00  0.00     0.037 A 
ATOM      5  C   UNL     1       2.954  -1.765   0.009  1.00  0.00     0.026 A 
ATOM      6  C   UNL     1       1.290  -0.096  -0.521  1.00  0.00     0.026 A 
ATOM      7  C   UNL     1       2.017  -2.773  -0.223  1.00  0.00     0.006 A 
ATOM      8  C   UNL     1       0.353  -1.103  -0.753  1.00  0.00     0.006 A 
BRANCH   4   9
ATOM      9  N   UNL     1       3.538   0.591   0.095  1.00  0.00    -0.369 N 
BRANCH   9  10
ATOM     10  C   UNL     1       3.456   1.849  -0.622  1.00  0.00     0.132 C 
BRANCH  10  11
ATOM     11  C   UNL     1       3.569   1.630  -2.122  1.00  0.00     0.131 C 
ATOM     12  Cl  UNL     1       5.121   0.872  -2.554  1.00  0.00    -0.125 Cl
ENDBRANCH  10  11
ENDBRANCH   9  10
BRANCH   9  13
ATOM     13  C   UNL     1       4.597   0.399   1.065  1.00  0.00     0.132 C 
BRANCH  13  14
ATOM     14  C   UNL     1       4.027   0.150   2.453  1.00  0.00     0.131 C 
ATOM     15  Cl  UNL     1       3.041   1.526   3.007  1.00  0.00    -0.125 Cl
ENDBRANCH  13  14
ENDBRANCH   9  13
ENDBRANCH   4   9
ENDBRANCH   2   3
ENDBRANCH   1   2
BRANCH   1  16
ATOM     16  C   UNL     1      -1.900  -2.802   1.016  1.00  0.00     0.123 C 
BRANCH  16  17
ATOM     17  C   UNL     1      -2.927  -2.206   0.081  1.00  0.00     0.305 C 
ATOM     18  O   UNL     1      -3.457  -2.812  -0.842  1.00  0.00    -0.252 OA
BRANCH  17  19
ATOM     19  O   UNL     1      -3.186  -0.917   0.445  1.00  0.00    -0.464 OA
BRANCH  19  20
ATOM     20  C   UNL     1      -4.169  -0.239  -0.344  1.00  0.00     0.255 C 
BRANCH  20  21
ATOM     21  C   UNL     1      -4.347   1.175   0.177  1.00  0.00     0.171 C 
BRANCH  21  22
ATOM     22  N   UNL     1      -3.111   1.909   0.144  1.00  0.00    -0.272 N 
ATOM     23  C   UNL     1      -2.690   2.696  -0.903  1.00  0.00     0.253 C 
ATOM     24  C   UNL     1      -2.179   1.926   1.155  1.00  0.00     0.253 C 
ATOM     25  O   UNL     1      -3.240   2.924  -1.967  1.00  0.00    -0.269 OA
ATOM     26  C   UNL     1      -1.386   3.254  -0.513  1.00  0.00     0.077 C 
ATOM     27  O   UNL     1      -2.193   1.355   2.233  1.00  0.00    -0.269 OA
ATOM     28  C   UNL     1      -1.084   2.799   0.704  1.00  0.00     0.077 C 
ENDBRANCH  21  22
ENDBRANCH  20  21
ENDBRANCH  19  20
ENDBRANCH  17  19
ENDBRANCH  16  17
ENDBRANCH   1  16
TORSDOF 13
