REMARK SMILES C[n+]1cc2c3c(ccc2c2ccc4cc5c(cc4c21)OCO5)OCO3
REMARK SMILES IDX 25 1 23 2 20 3 22 4 2 5 19 6 10 7 9 8 18 9 4 10 13 11 3 12
REMARK SMILES IDX 5 13 11 14 12 15 17 16 8 17 6 18 14 19 16 20 15 21 1 22 7 23
REMARK SMILES IDX 24 24 21 25
REMARK H PARENT
ROOT
ATOM      1  O   UNL     1      -4.463   1.836  -0.000  1.00  0.00    -0.453 OA
ATOM      2  O   UNL     1      -6.000  -0.013   0.001  1.00  0.00    -0.454 OA
ATOM      3  O   UNL     1       4.992   1.810  -0.004  1.00  0.00    -0.454 OA
ATOM      4  O   UNL     1       5.914  -0.414   0.001  1.00  0.00    -0.454 OA
ATOM      5  N   UNL     1      -0.231   1.302  -0.000  1.00  0.00    -0.200 N 
ATOM      6  C   UNL     1       0.351   0.083  -0.000  1.00  0.00     0.220 A 
ATOM      7  C   UNL     1      -0.503  -1.058  -0.001  1.00  0.00     0.055 A 
ATOM      8  C   UNL     1      -1.928  -0.879  -0.001  1.00  0.00     0.006 A 
ATOM      9  C   UNL     1       1.776  -0.038  -0.000  1.00  0.00     0.058 A 
ATOM     10  C   UNL     1      -2.437   0.439  -0.001  1.00  0.00     0.092 A 
ATOM     11  C   UNL     1       2.347  -1.344   0.001  1.00  0.00    -0.008 A 
ATOM     12  C   UNL     1      -1.550   1.506  -0.001  1.00  0.00     0.321 A 
ATOM     13  C   UNL     1      -3.818   0.633  -0.001  1.00  0.00     0.179 A 
ATOM     14  C   UNL     1       0.122  -2.320   0.000  1.00  0.00     0.016 A 
ATOM     15  C   UNL     1       1.511  -2.460   0.002  1.00  0.00     0.010 A 
ATOM     16  C   UNL     1       2.665   1.068  -0.002  1.00  0.00     0.066 A 
ATOM     17  C   UNL     1      -2.884  -1.943  -0.001  1.00  0.00     0.014 A 
ATOM     18  C   UNL     1      -4.702  -0.418  -0.000  1.00  0.00     0.166 A 
ATOM     19  C   UNL     1       3.742  -1.527   0.003  1.00  0.00     0.059 A 
ATOM     20  C   UNL     1       4.029   0.849  -0.001  1.00  0.00     0.166 A 
ATOM     21  C   UNL     1       4.553  -0.415   0.001  1.00  0.00     0.166 A 
ATOM     22  C   UNL     1       0.435   2.604   0.008  1.00  0.00     0.440 C 
ATOM     23  C   UNL     1      -4.266  -1.720  -0.001  1.00  0.00     0.051 A 
ATOM     24  C   UNL     1      -5.842   1.418   0.000  1.00  0.00     0.468 C 
ATOM     25  C   UNL     1       6.186   1.002  -0.002  1.00  0.00     0.468 C 
ENDROOT
TORSDOF 0
