REMARK SMILES O=C(CCCc1ccc(N(CCCl)CCCl)cc1)O[C@H](c1ccccc1)c1cc(O)c2c(c1O)C(=O)c1ccccc1C2=O
REMARK SMILES IDX 4 1 5 2 6 3 9 4 8 5 17 6 7 7 18 8 10 9 11 10 12 11 13 12
REMARK SMILES IDX 14 13 15 14 16 15 3 16 2 17 1 18 19 19 20 20 27 21 33 22
REMARK SMILES IDX 28 23 32 24 29 25 31 26 35 27 43 28 36 29 37 30 44 31 42 32
REMARK SMILES IDX 38 33 41 34 39 35 40 36 34 37 30 39 21 41 22 42 26 43 23 44
REMARK SMILES IDX 25 45 24 46
REMARK H PARENT 34 38 30 40
ROOT
ATOM      1  C   UNL     1      -0.781   4.802  -1.425  1.00  0.00     0.016 C 
ENDROOT
BRANCH   1   2
ATOM      2  C   UNL     1       0.202   4.018  -2.306  1.00  0.00     0.036 C 
BRANCH   2   3
ATOM      3  C   UNL     1       1.353   3.394  -1.559  1.00  0.00    -0.048 A 
ATOM      4  C   UNL     1       3.483   2.239  -0.177  1.00  0.00     0.037 A 
ATOM      5  C   UNL     1       3.603   3.531  -0.689  1.00  0.00     0.026 A 
ATOM      6  C   UNL     1       2.299   1.524  -0.356  1.00  0.00     0.026 A 
ATOM      7  C   UNL     1       2.538   4.108  -1.380  1.00  0.00     0.006 A 
ATOM      8  C   UNL     1       1.234   2.102  -1.047  1.00  0.00     0.006 A 
BRANCH   4   9
ATOM      9  N   UNL     1       4.561   1.655   0.521  1.00  0.00    -0.369 N 
BRANCH   9  10
ATOM     10  C   UNL     1       4.750   0.218   0.509  1.00  0.00     0.132 C 
BRANCH  10  11
ATOM     11  C   UNL     1       4.947  -0.294  -0.909  1.00  0.00     0.131 C 
ATOM     12  Cl  UNL     1       5.192  -2.058  -0.935  1.00  0.00    -0.125 Cl
ENDBRANCH  10  11
ENDBRANCH   9  10
BRANCH   9  13
ATOM     13  C   UNL     1       5.484   2.483   1.272  1.00  0.00     0.132 C 
BRANCH  13  14
ATOM     14  C   UNL     1       4.758   3.263   2.357  1.00  0.00     0.131 C 
ATOM     15  Cl  UNL     1       3.939   2.175   3.505  1.00  0.00    -0.125 Cl
ENDBRANCH  13  14
ENDBRANCH   9  13
ENDBRANCH   4   9
ENDBRANCH   2   3
ENDBRANCH   1   2
BRANCH   1  16
ATOM     16  C   UNL     1      -1.469   3.953  -0.354  1.00  0.00     0.123 C 
BRANCH  16  17
ATOM     17  C   UNL     1      -2.252   2.796  -0.932  1.00  0.00     0.306 C 
ATOM     18  O   UNL     1      -2.388   2.581  -2.129  1.00  0.00    -0.252 OA
BRANCH  17  19
ATOM     19  O   UNL     1      -2.745   2.034   0.083  1.00  0.00    -0.452 OA
BRANCH  19  20
ATOM     20  C   UNL     1      -3.490   0.874  -0.329  1.00  0.00     0.241 C 
BRANCH  20  21
ATOM     21  C   UNL     1      -2.613  -0.319  -0.524  1.00  0.00     0.043 A 
ATOM     22  C   UNL     1      -1.504  -0.536   0.294  1.00  0.00     0.135 A 
ATOM     23  C   UNL     1      -2.917  -1.221  -1.542  1.00  0.00     0.058 A 
ATOM     24  C   UNL     1      -0.696  -1.661   0.093  1.00  0.00     0.080 A 
ATOM     25  C   UNL     1      -2.114  -2.343  -1.746  1.00  0.00     0.128 A 
ATOM     26  C   UNL     1      -1.000  -2.564  -0.927  1.00  0.00     0.079 A 
ATOM     27  C   UNL     1       0.476  -1.882   0.965  1.00  0.00     0.198 C 
ATOM     28  C   UNL     1      -0.154  -3.755  -1.151  1.00  0.00     0.198 C 
ATOM     29  O   UNL     1       0.767  -1.106   1.866  1.00  0.00    -0.288 OA
ATOM     30  C   UNL     1       1.321  -3.073   0.742  1.00  0.00     0.034 A 
ATOM     31  O   UNL     1      -0.400  -4.562  -2.038  1.00  0.00    -0.288 OA
ATOM     32  C   UNL     1       1.017  -3.976  -0.279  1.00  0.00     0.034 A 
ATOM     33  C   UNL     1       2.435  -3.294   1.561  1.00  0.00     0.013 A 
ATOM     34  C   UNL     1       1.827  -5.101  -0.480  1.00  0.00     0.013 A 
ATOM     35  C   UNL     1       3.239  -4.416   1.357  1.00  0.00     0.001 A 
ATOM     36  C   UNL     1       2.935  -5.317   0.339  1.00  0.00     0.001 A 
BRANCH  22  37
ATOM     37  O   UNL     1      -1.248   0.375   1.278  1.00  0.00    -0.507 OA
ATOM     38  H   UNL     1      -0.469   0.251   1.877  1.00  0.00     0.293 HD
ENDBRANCH  22  37
BRANCH  25  39
ATOM     39  O   UNL     1      -2.465  -3.186  -2.759  1.00  0.00    -0.507 OA
ATOM     40  H   UNL     1      -3.261  -2.990  -3.313  1.00  0.00     0.293 HD
ENDBRANCH  25  39
ENDBRANCH  20  21
BRANCH  20  41
ATOM     41  C   UNL     1      -4.637   0.639   0.646  1.00  0.00    -0.003 A 
ATOM     42  C   UNL     1      -5.819   0.045   0.203  1.00  0.00     0.008 A 
ATOM     43  C   UNL     1      -4.505   1.018   1.982  1.00  0.00     0.008 A 
ATOM     44  C   UNL     1      -6.869  -0.170   1.095  1.00  0.00     0.000 A 
ATOM     45  C   UNL     1      -5.556   0.803   2.874  1.00  0.00     0.000 A 
ATOM     46  C   UNL     1      -6.737   0.209   2.431  1.00  0.00     0.000 A 
ENDBRANCH  20  41
ENDBRANCH  19  20
ENDBRANCH  17  19
ENDBRANCH  16  17
ENDBRANCH   1  16
TORSDOF 15
