MODEL 1
REMARK VINA RESULT:   -10.377      0.000      0.000
REMARK INTER + INTRA:         -14.292
REMARK INTER:                 -13.714
REMARK INTRA:                  -0.578
REMARK UNBOUND:                -0.578
REMARK SMILES C[C@@]1(c2nc(NC(=O)c3ncc(C(F)(F)F)cc3Cl)ccc2F)CO[C@@](C)(C(F)(F)F)C(N)N1
REMARK SMILES IDX 5 1 20 2 21 3 22 4 3 5 4 6 23 7 6 8 7 9 8 10 9 12 18 13
REMARK SMILES IDX 17 14 12 15 10 16 11 17 19 18 13 19 14 20 15 21 16 22 2 23
REMARK SMILES IDX 34 24 24 25 32 26 25 27 26 28 1 29 27 31 33 32 28 35 29 36
REMARK SMILES IDX 30 37 31 38
REMARK H PARENT 6 11 34 30 33 33 33 34
ROOT
ATOM      1  C   UNL     1      28.886  77.356  20.729  1.00  0.00     0.133 A 
ATOM      2  C   UNL     1      29.824  78.030  21.541  1.00  0.00     0.050 A 
ATOM      3  C   UNL     1      30.677  77.259  22.326  1.00  0.00     0.045 A 
ATOM      4  C   UNL     1      30.567  75.878  22.289  1.00  0.00     0.146 A 
ATOM      5  C   UNL     1      29.554  75.243  21.519  1.00  0.00     0.101 A 
ATOM      6  N   UNL     1      28.761  76.036  20.782  1.00  0.00    -0.231 NA
ATOM      7  F   UNL     1      31.366  75.142  23.043  1.00  0.00    -0.205 F 
ENDROOT
BRANCH   1   8
ATOM      8  N   UNL     1      28.006  78.022  19.868  1.00  0.00    -0.305 N 
ATOM      9  C   UNL     1      27.571  79.281  19.954  1.00  0.00     0.276 C 
ATOM     10  O   UNL     1      27.792  80.046  20.890  1.00  0.00    -0.267 OA
ATOM     11  H   UNL     1      27.651  77.474  19.071  1.00  0.00     0.171 HD
BRANCH   9  12
ATOM     12  C   UNL     1      26.694  79.754  18.856  1.00  0.00     0.147 A 
ATOM     13  C   UNL     1      27.123  80.608  17.828  1.00  0.00     0.073 A 
ATOM     14  C   UNL     1      26.233  80.988  16.840  1.00  0.00     0.037 A 
ATOM     15  C   UNL     1      24.922  80.513  16.934  1.00  0.00     0.075 A 
ATOM     16  N   UNL     1      25.421  79.320  18.915  1.00  0.00    -0.249 NA
ATOM     17  C   UNL     1      24.548  79.680  17.973  1.00  0.00     0.125 A 
ATOM     18  Cl  UNL     1      28.788  81.169  17.726  1.00  0.00    -0.082 Cl
BRANCH  15  19
ATOM     19  C   UNL     1      23.900  80.901  15.912  1.00  0.00     0.417 C 
ATOM     20  F   UNL     1      24.498  81.377  14.818  1.00  0.00    -0.166 F 
ATOM     21  F   UNL     1      23.092  79.875  15.596  1.00  0.00    -0.166 F 
ATOM     22  F   UNL     1      23.190  81.924  16.414  1.00  0.00    -0.166 F 
ENDBRANCH  15  19
ENDBRANCH   9  12
ENDBRANCH   1   8
BRANCH   5  23
ATOM     23  C   UNL     1      29.329  73.727  21.465  1.00  0.00     0.086 C 
ATOM     24  N   UNL     1      28.157  73.437  20.632  1.00  0.00    -0.287 NA
ATOM     25  C   UNL     1      30.596  73.056  20.892  1.00  0.00     0.190 C 
ATOM     26  C   UNL     1      28.282  73.213  19.376  1.00  0.00     0.161 C 
ATOM     27  O   UNL     1      30.700  73.530  19.533  1.00  0.00    -0.360 OA
ATOM     28  C   UNL     1      29.626  73.267  18.622  1.00  0.00     0.188 C 
ATOM     29  C   UNL     1      29.004  73.218  22.902  1.00  0.00     0.038 C 
ATOM     30  H   UNL     1      27.710  72.601  21.036  1.00  0.00     0.125 HD
ATOM     31  C   UNL     1      29.658  74.413  17.560  1.00  0.00     0.056 C 
BRANCH  26  32
ATOM     32  N   UNL     1      27.175  72.939  18.704  1.00  0.00    -0.313 NA
ATOM     33  H   UNL     1      27.085  71.919  18.593  1.00  0.00     0.120 HD
ATOM     34  H   UNL     1      26.362  73.302  19.221  1.00  0.00     0.120 HD
ENDBRANCH  26  32
BRANCH  28  35
ATOM     35  C   UNL     1      29.972  71.897  18.013  1.00  0.00     0.420 C 
ATOM     36  F   UNL     1      29.455  71.861  16.767  1.00  0.00    -0.168 F 
ATOM     37  F   UNL     1      31.328  71.813  17.909  1.00  0.00    -0.168 F 
ATOM     38  F   UNL     1      29.450  70.896  18.763  1.00  0.00    -0.168 F 
ENDBRANCH  28  35
ENDBRANCH   5  23
TORSDOF 6
ENDMDL
MODEL 2
REMARK VINA RESULT:    -9.035      2.948      3.810
REMARK INTER + INTRA:         -12.519
REMARK INTER:                 -11.780
REMARK INTRA:                  -0.739
REMARK UNBOUND:                -0.578
REMARK SMILES C[C@@]1(c2nc(NC(=O)c3ncc(C(F)(F)F)cc3Cl)ccc2F)CO[C@@](C)(C(F)(F)F)C(N)N1
REMARK SMILES IDX 5 1 20 2 21 3 22 4 3 5 4 6 23 7 6 8 7 9 8 10 9 12 18 13
REMARK SMILES IDX 17 14 12 15 10 16 11 17 19 18 13 19 14 20 15 21 16 22 2 23
REMARK SMILES IDX 34 24 24 25 32 26 25 27 26 28 1 29 27 31 33 32 28 35 29 36
REMARK SMILES IDX 30 37 31 38
REMARK H PARENT 6 11 34 30 33 33 33 34
ROOT
ATOM      1  C   UNL     1      29.625  77.660  20.309  1.00  0.00     0.133 A 
ATOM      2  C   UNL     1      29.384  77.022  21.546  1.00  0.00     0.050 A 
ATOM      3  C   UNL     1      30.482  76.528  22.246  1.00  0.00     0.045 A 
ATOM      4  C   UNL     1      31.750  76.670  21.705  1.00  0.00     0.146 A 
ATOM      5  C   UNL     1      31.938  77.247  20.419  1.00  0.00     0.101 A 
ATOM      6  N   UNL     1      30.845  77.706  19.790  1.00  0.00    -0.231 NA
ATOM      7  F   UNL     1      32.793  76.191  22.361  1.00  0.00    -0.205 F 
ENDROOT
BRANCH   1   8
ATOM      8  N   UNL     1      28.607  78.232  19.536  1.00  0.00    -0.305 N 
ATOM      9  C   UNL     1      27.928  79.356  19.776  1.00  0.00     0.276 C 
ATOM     10  O   UNL     1      28.013  80.031  20.799  1.00  0.00    -0.267 OA
ATOM     11  H   UNL     1      28.351  77.723  18.677  1.00  0.00     0.171 HD
BRANCH   9  12
ATOM     12  C   UNL     1      26.947  79.769  18.745  1.00  0.00     0.147 A 
ATOM     13  C   UNL     1      27.269  80.575  17.641  1.00  0.00     0.073 A 
ATOM     14  C   UNL     1      26.285  80.900  16.724  1.00  0.00     0.037 A 
ATOM     15  C   UNL     1      24.994  80.421  16.964  1.00  0.00     0.075 A 
ATOM     16  N   UNL     1      25.690  79.330  18.944  1.00  0.00    -0.249 NA
ATOM     17  C   UNL     1      24.728  79.638  18.072  1.00  0.00     0.125 A 
ATOM     18  Cl  UNL     1      28.910  81.141  17.356  1.00  0.00    -0.082 Cl
BRANCH  15  19
ATOM     19  C   UNL     1      23.877  80.752  16.025  1.00  0.00     0.417 C 
ATOM     20  F   UNL     1      22.842  81.260  16.697  1.00  0.00    -0.166 F 
ATOM     21  F   UNL     1      24.268  81.598  15.058  1.00  0.00    -0.166 F 
ATOM     22  F   UNL     1      23.437  79.600  15.494  1.00  0.00    -0.166 F 
ENDBRANCH  15  19
ENDBRANCH   9  12
ENDBRANCH   1   8
BRANCH   5  23
ATOM     23  C   UNL     1      33.298  77.392  19.725  1.00  0.00     0.086 C 
ATOM     24  N   UNL     1      34.030  76.125  19.816  1.00  0.00    -0.287 NA
ATOM     25  C   UNL     1      33.066  77.794  18.252  1.00  0.00     0.190 C 
ATOM     26  C   UNL     1      33.933  75.241  18.893  1.00  0.00     0.161 C 
ATOM     27  O   UNL     1      32.388  76.671  17.651  1.00  0.00    -0.360 OA
ATOM     28  C   UNL     1      33.032  75.391  17.651  1.00  0.00     0.188 C 
ATOM     29  C   UNL     1      34.138  78.460  20.490  1.00  0.00     0.038 C 
ATOM     30  H   UNL     1      35.029  76.368  19.886  1.00  0.00     0.125 HD
ATOM     31  C   UNL     1      31.890  74.324  17.621  1.00  0.00     0.056 C 
BRANCH  26  32
ATOM     32  N   UNL     1      34.643  74.135  19.046  1.00  0.00    -0.313 NA
ATOM     33  H   UNL     1      34.496  73.518  18.234  1.00  0.00     0.120 HD
ATOM     34  H   UNL     1      35.642  74.377  19.117  1.00  0.00     0.120 HD
ENDBRANCH  26  32
BRANCH  28  35
ATOM     35  C   UNL     1      33.868  75.387  16.359  1.00  0.00     0.420 C 
ATOM     36  F   UNL     1      33.975  74.108  15.946  1.00  0.00    -0.168 F 
ATOM     37  F   UNL     1      33.179  76.080  15.410  1.00  0.00    -0.168 F 
ATOM     38  F   UNL     1      35.098  75.909  16.586  1.00  0.00    -0.168 F 
ENDBRANCH  28  35
ENDBRANCH   5  23
TORSDOF 6
ENDMDL
MODEL 3
REMARK VINA RESULT:    -8.869      5.521      8.382
REMARK INTER + INTRA:         -12.299
REMARK INTER:                 -11.193
REMARK INTRA:                  -1.106
REMARK UNBOUND:                -0.578
REMARK SMILES C[C@@]1(c2nc(NC(=O)c3ncc(C(F)(F)F)cc3Cl)ccc2F)CO[C@@](C)(C(F)(F)F)C(N)N1
REMARK SMILES IDX 5 1 20 2 21 3 22 4 3 5 4 6 23 7 6 8 7 9 8 10 9 12 18 13
REMARK SMILES IDX 17 14 12 15 10 16 11 17 19 18 13 19 14 20 15 21 16 22 2 23
REMARK SMILES IDX 34 24 24 25 32 26 25 27 26 28 1 29 27 31 33 32 28 35 29 36
REMARK SMILES IDX 30 37 31 38
REMARK H PARENT 6 11 34 30 33 33 33 34
ROOT
ATOM      1  C   UNL     1      30.288  72.868  20.468  1.00  0.00     0.133 A 
ATOM      2  C   UNL     1      29.331  72.858  21.508  1.00  0.00     0.050 A 
ATOM      3  C   UNL     1      29.455  73.813  22.513  1.00  0.00     0.045 A 
ATOM      4  C   UNL     1      30.504  74.717  22.463  1.00  0.00     0.146 A 
ATOM      5  C   UNL     1      31.491  74.640  21.442  1.00  0.00     0.101 A 
ATOM      6  N   UNL     1      31.320  73.701  20.499  1.00  0.00    -0.231 NA
ATOM      7  F   UNL     1      30.633  75.617  23.424  1.00  0.00    -0.205 F 
ENDROOT
BRANCH   1   8
ATOM      8  N   UNL     1      30.243  71.986  19.383  1.00  0.00    -0.305 N 
ATOM      9  C   UNL     1      29.705  72.195  18.178  1.00  0.00     0.276 C 
ATOM     10  O   UNL     1      29.049  73.181  17.856  1.00  0.00    -0.267 OA
ATOM     11  H   UNL     1      30.677  71.063  19.531  1.00  0.00     0.171 HD
BRANCH   9  12
ATOM     12  C   UNL     1      29.866  71.106  17.185  1.00  0.00     0.147 A 
ATOM     13  C   UNL     1      30.935  71.027  16.279  1.00  0.00     0.073 A 
ATOM     14  C   UNL     1      31.004  69.965  15.395  1.00  0.00     0.037 A 
ATOM     15  C   UNL     1      29.972  69.023  15.435  1.00  0.00     0.075 A 
ATOM     16  N   UNL     1      28.887  70.180  17.191  1.00  0.00    -0.249 NA
ATOM     17  C   UNL     1      28.936  69.152  16.342  1.00  0.00     0.125 A 
ATOM     18  Cl  UNL     1      32.231  72.217  16.273  1.00  0.00    -0.082 Cl
BRANCH  15  19
ATOM     19  C   UNL     1      29.971  67.861  14.493  1.00  0.00     0.417 C 
ATOM     20  F   UNL     1      29.694  68.270  13.254  1.00  0.00    -0.166 F 
ATOM     21  F   UNL     1      31.137  67.195  14.517  1.00  0.00    -0.166 F 
ATOM     22  F   UNL     1      28.958  67.052  14.845  1.00  0.00    -0.166 F 
ENDBRANCH  15  19
ENDBRANCH   9  12
ENDBRANCH   1   8
BRANCH   5  23
ATOM     23  C   UNL     1      32.710  75.565  21.344  1.00  0.00     0.086 C 
ATOM     24  N   UNL     1      33.638  75.045  20.335  1.00  0.00    -0.287 NA
ATOM     25  C   UNL     1      32.228  76.985  20.974  1.00  0.00     0.190 C 
ATOM     26  C   UNL     1      33.562  75.424  19.113  1.00  0.00     0.161 C 
ATOM     27  O   UNL     1      31.664  76.866  19.651  1.00  0.00    -0.360 OA
ATOM     28  C   UNL     1      32.496  76.402  18.581  1.00  0.00     0.188 C 
ATOM     29  C   UNL     1      33.463  75.547  22.708  1.00  0.00     0.038 C 
ATOM     30  H   UNL     1      34.587  75.283  20.659  1.00  0.00     0.125 HD
ATOM     31  C   UNL     1      31.542  75.724  17.544  1.00  0.00     0.056 C 
BRANCH  26  32
ATOM     32  N   UNL     1      34.452  74.920  18.273  1.00  0.00    -0.313 NA
ATOM     33  H   UNL     1      34.289  75.302  17.331  1.00  0.00     0.120 HD
ATOM     34  H   UNL     1      35.400  75.170  18.587  1.00  0.00     0.120 HD
ENDBRANCH  26  32
BRANCH  28  35
ATOM     35  C   UNL     1      33.147  77.681  18.026  1.00  0.00     0.420 C 
ATOM     36  F   UNL     1      33.489  77.441  16.742  1.00  0.00    -0.168 F 
ATOM     37  F   UNL     1      32.210  78.669  18.035  1.00  0.00    -0.168 F 
ATOM     38  F   UNL     1      34.247  78.008  18.747  1.00  0.00    -0.168 F 
ENDBRANCH  28  35
ENDBRANCH   5  23
TORSDOF 6
ENDMDL
MODEL 4
REMARK VINA RESULT:    -8.768      4.342      8.480
REMARK INTER + INTRA:         -12.165
REMARK INTER:                 -11.184
REMARK INTRA:                  -0.981
REMARK UNBOUND:                -0.578
REMARK SMILES C[C@@]1(c2nc(NC(=O)c3ncc(C(F)(F)F)cc3Cl)ccc2F)CO[C@@](C)(C(F)(F)F)C(N)N1
REMARK SMILES IDX 5 1 20 2 21 3 22 4 3 5 4 6 23 7 6 8 7 9 8 10 9 12 18 13
REMARK SMILES IDX 17 14 12 15 10 16 11 17 19 18 13 19 14 20 15 21 16 22 2 23
REMARK SMILES IDX 34 24 24 25 32 26 25 27 26 28 1 29 27 31 33 32 28 35 29 36
REMARK SMILES IDX 30 37 31 38
REMARK H PARENT 6 11 34 30 33 33 33 34
ROOT
ATOM      1  C   UNL     1      30.909  75.402  16.315  1.00  0.00     0.133 A 
ATOM      2  C   UNL     1      31.586  76.297  15.455  1.00  0.00     0.050 A 
ATOM      3  C   UNL     1      31.789  77.599  15.903  1.00  0.00     0.045 A 
ATOM      4  C   UNL     1      31.316  77.967  17.153  1.00  0.00     0.146 A 
ATOM      5  C   UNL     1      30.569  77.058  17.951  1.00  0.00     0.101 A 
ATOM      6  N   UNL     1      30.406  75.816  17.470  1.00  0.00    -0.231 NA
ATOM      7  F   UNL     1      31.495  79.207  17.575  1.00  0.00    -0.205 F 
ENDROOT
BRANCH   1   8
ATOM      8  N   UNL     1      30.684  74.059  15.992  1.00  0.00    -0.305 N 
ATOM      9  C   UNL     1      31.403  72.996  16.360  1.00  0.00     0.276 C 
ATOM     10  O   UNL     1      32.471  73.037  16.966  1.00  0.00    -0.267 OA
ATOM     11  H   UNL     1      29.863  73.868  15.400  1.00  0.00     0.171 HD
BRANCH   9  12
ATOM     12  C   UNL     1      30.891  71.672  15.933  1.00  0.00     0.147 A 
ATOM     13  C   UNL     1      29.894  70.962  16.621  1.00  0.00     0.073 A 
ATOM     14  C   UNL     1      29.473  69.736  16.138  1.00  0.00     0.037 A 
ATOM     15  C   UNL     1      30.094  69.248  14.985  1.00  0.00     0.075 A 
ATOM     16  N   UNL     1      31.468  71.167  14.826  1.00  0.00    -0.249 NA
ATOM     17  C   UNL     1      31.077  69.983  14.350  1.00  0.00     0.125 A 
ATOM     18  Cl  UNL     1      29.117  71.617  18.057  1.00  0.00    -0.082 Cl
BRANCH  15  19
ATOM     19  C   UNL     1      29.703  67.918  14.420  1.00  0.00     0.417 C 
ATOM     20  F   UNL     1      28.847  67.302  15.236  1.00  0.00    -0.166 F 
ATOM     21  F   UNL     1      29.179  68.031  13.188  1.00  0.00    -0.166 F 
ATOM     22  F   UNL     1      30.803  67.148  14.396  1.00  0.00    -0.166 F 
ENDBRANCH  15  19
ENDBRANCH   9  12
ENDBRANCH   1   8
BRANCH   5  23
ATOM     23  C   UNL     1      29.966  77.401  19.319  1.00  0.00     0.086 C 
ATOM     24  N   UNL     1      29.050  76.332  19.730  1.00  0.00    -0.287 NA
ATOM     25  C   UNL     1      31.112  77.572  20.340  1.00  0.00     0.190 C 
ATOM     26  C   UNL     1      29.465  75.346  20.437  1.00  0.00     0.161 C 
ATOM     27  O   UNL     1      31.727  76.271  20.448  1.00  0.00    -0.360 OA
ATOM     28  C   UNL     1      30.930  75.161  20.879  1.00  0.00     0.188 C 
ATOM     29  C   UNL     1      29.116  78.700  19.179  1.00  0.00     0.038 C 
ATOM     30  H   UNL     1      28.296  76.783  20.268  1.00  0.00     0.125 HD
ATOM     31  C   UNL     1      31.577  73.885  20.250  1.00  0.00     0.056 C 
BRANCH  26  32
ATOM     32  N   UNL     1      28.567  74.437  20.781  1.00  0.00    -0.313 NA
ATOM     33  H   UNL     1      28.924  73.886  21.575  1.00  0.00     0.120 HD
ATOM     34  H   UNL     1      27.691  74.905  21.052  1.00  0.00     0.120 HD
ENDBRANCH  26  32
BRANCH  28  35
ATOM     35  C   UNL     1      31.050  75.181  22.413  1.00  0.00     0.420 C 
ATOM     36  F   UNL     1      30.621  73.987  22.872  1.00  0.00    -0.168 F 
ATOM     37  F   UNL     1      32.370  75.305  22.730  1.00  0.00    -0.168 F 
ATOM     38  F   UNL     1      30.299  76.179  22.938  1.00  0.00    -0.168 F 
ENDBRANCH  28  35
ENDBRANCH   5  23
TORSDOF 6
ENDMDL
MODEL 5
REMARK VINA RESULT:    -8.484      1.657      2.136
REMARK INTER + INTRA:         -11.790
REMARK INTER:                 -11.641
REMARK INTRA:                  -0.150
REMARK UNBOUND:                -0.578
REMARK SMILES C[C@@]1(c2nc(NC(=O)c3ncc(C(F)(F)F)cc3Cl)ccc2F)CO[C@@](C)(C(F)(F)F)C(N)N1
REMARK SMILES IDX 5 1 20 2 21 3 22 4 3 5 4 6 23 7 6 8 7 9 8 10 9 12 18 13
REMARK SMILES IDX 17 14 12 15 10 16 11 17 19 18 13 19 14 20 15 21 16 22 2 23
REMARK SMILES IDX 34 24 24 25 32 26 25 27 26 28 1 29 27 31 33 32 28 35 29 36
REMARK SMILES IDX 30 37 31 38
REMARK H PARENT 6 11 34 30 33 33 33 34
ROOT
ATOM      1  C   UNL     1      29.320  77.234  20.538  1.00  0.00     0.133 A 
ATOM      2  C   UNL     1      29.324  77.272  21.950  1.00  0.00     0.050 A 
ATOM      3  C   UNL     1      30.322  76.567  22.617  1.00  0.00     0.045 A 
ATOM      4  C   UNL     1      31.256  75.855  21.880  1.00  0.00     0.146 A 
ATOM      5  C   UNL     1      31.167  75.778  20.462  1.00  0.00     0.101 A 
ATOM      6  N   UNL     1      30.185  76.478  19.874  1.00  0.00    -0.231 NA
ATOM      7  F   UNL     1      32.198  75.173  22.509  1.00  0.00    -0.205 F 
ENDROOT
BRANCH   1   8
ATOM      8  N   UNL     1      28.393  77.935  19.759  1.00  0.00    -0.305 N 
ATOM      9  C   UNL     1      28.021  79.212  19.879  1.00  0.00     0.276 C 
ATOM     10  O   UNL     1      28.360  79.968  20.786  1.00  0.00    -0.267 OA
ATOM     11  H   UNL     1      27.943  77.402  19.002  1.00  0.00     0.171 HD
BRANCH   9  12
ATOM     12  C   UNL     1      27.066  79.720  18.865  1.00  0.00     0.147 A 
ATOM     13  C   UNL     1      27.421  80.605  17.834  1.00  0.00     0.073 A 
ATOM     14  C   UNL     1      26.460  81.017  16.928  1.00  0.00     0.037 A 
ATOM     15  C   UNL     1      25.158  80.541  17.106  1.00  0.00     0.075 A 
ATOM     16  N   UNL     1      25.799  79.287  19.006  1.00  0.00    -0.249 NA
ATOM     17  C   UNL     1      24.860  79.678  18.143  1.00  0.00     0.125 A 
ATOM     18  Cl  UNL     1      29.076  81.165  17.625  1.00  0.00    -0.082 Cl
BRANCH  15  19
ATOM     19  C   UNL     1      24.064  80.963  16.175  1.00  0.00     0.417 C 
ATOM     20  F   UNL     1      23.938  82.290  16.181  1.00  0.00    -0.166 F 
ATOM     21  F   UNL     1      24.270  80.517  14.925  1.00  0.00    -0.166 F 
ATOM     22  F   UNL     1      22.908  80.484  16.663  1.00  0.00    -0.166 F 
ENDBRANCH  15  19
ENDBRANCH   9  12
ENDBRANCH   1   8
BRANCH   5  23
ATOM     23  C   UNL     1      32.124  74.971  19.577  1.00  0.00     0.086 C 
ATOM     24  N   UNL     1      31.880  73.538  19.774  1.00  0.00    -0.287 NA
ATOM     25  C   UNL     1      31.900  75.375  18.104  1.00  0.00     0.190 C 
ATOM     26  C   UNL     1      31.052  72.904  19.028  1.00  0.00     0.161 C 
ATOM     27  O   UNL     1      30.556  74.952  17.791  1.00  0.00    -0.360 OA
ATOM     28  C   UNL     1      30.219  73.565  17.911  1.00  0.00     0.188 C 
ATOM     29  C   UNL     1      33.587  75.250  20.038  1.00  0.00     0.038 C 
ATOM     30  H   UNL     1      32.791  73.068  19.668  1.00  0.00     0.125 HD
ATOM     31  C   UNL     1      28.686  73.510  18.211  1.00  0.00     0.056 C 
BRANCH  26  32
ATOM     32  N   UNL     1      30.907  71.610  19.261  1.00  0.00    -0.313 NA
ATOM     33  H   UNL     1      30.988  71.432  20.273  1.00  0.00     0.120 HD
ATOM     34  H   UNL     1      29.980  71.303  18.931  1.00  0.00     0.120 HD
ENDBRANCH  26  32
BRANCH  28  35
ATOM     35  C   UNL     1      30.568  72.969  16.537  1.00  0.00     0.420 C 
ATOM     36  F   UNL     1      29.664  72.003  16.269  1.00  0.00    -0.168 F 
ATOM     37  F   UNL     1      30.424  73.951  15.603  1.00  0.00    -0.168 F 
ATOM     38  F   UNL     1      31.818  72.446  16.546  1.00  0.00    -0.168 F 
ENDBRANCH  28  35
ENDBRANCH   5  23
TORSDOF 6
ENDMDL
MODEL 6
REMARK VINA RESULT:    -8.467      5.647      7.787
REMARK INTER + INTRA:         -11.768
REMARK INTER:                 -10.923
REMARK INTRA:                  -0.846
REMARK UNBOUND:                -0.578
REMARK SMILES C[C@@]1(c2nc(NC(=O)c3ncc(C(F)(F)F)cc3Cl)ccc2F)CO[C@@](C)(C(F)(F)F)C(N)N1
REMARK SMILES IDX 5 1 20 2 21 3 22 4 3 5 4 6 23 7 6 8 7 9 8 10 9 12 18 13
REMARK SMILES IDX 17 14 12 15 10 16 11 17 19 18 13 19 14 20 15 21 16 22 2 23
REMARK SMILES IDX 34 24 24 25 32 26 25 27 26 28 1 29 27 31 33 32 28 35 29 36
REMARK SMILES IDX 30 37 31 38
REMARK H PARENT 6 11 34 30 33 33 33 34
ROOT
ATOM      1  C   UNL     1      33.482  73.505  16.525  1.00  0.00     0.133 A 
ATOM      2  C   UNL     1      34.296  74.073  15.520  1.00  0.00     0.050 A 
ATOM      3  C   UNL     1      34.718  73.246  14.482  1.00  0.00     0.045 A 
ATOM      4  C   UNL     1      34.337  71.914  14.480  1.00  0.00     0.146 A 
ATOM      5  C   UNL     1      33.585  71.364  15.555  1.00  0.00     0.101 A 
ATOM      6  N   UNL     1      33.206  72.207  16.527  1.00  0.00    -0.231 NA
ATOM      7  F   UNL     1      34.747  71.122  13.503  1.00  0.00    -0.205 F 
ENDROOT
BRANCH   1   8
ATOM      8  N   UNL     1      32.964  74.245  17.595  1.00  0.00    -0.305 N 
ATOM      9  C   UNL     1      33.592  74.618  18.713  1.00  0.00     0.276 C 
ATOM     10  O   UNL     1      34.722  74.268  19.043  1.00  0.00    -0.267 OA
ATOM     11  H   UNL     1      31.981  74.537  17.508  1.00  0.00     0.171 HD
BRANCH   9  12
ATOM     12  C   UNL     1      32.819  75.465  19.652  1.00  0.00     0.147 A 
ATOM     13  C   UNL     1      31.756  74.991  20.437  1.00  0.00     0.073 A 
ATOM     14  C   UNL     1      31.100  75.857  21.294  1.00  0.00     0.037 A 
ATOM     15  C   UNL     1      31.522  77.190  21.313  1.00  0.00     0.075 A 
ATOM     16  N   UNL     1      33.194  76.758  19.696  1.00  0.00    -0.249 NA
ATOM     17  C   UNL     1      32.570  77.608  20.513  1.00  0.00     0.125 A 
ATOM     18  Cl  UNL     1      31.266  73.301  20.407  1.00  0.00    -0.082 Cl
BRANCH  15  19
ATOM     19  C   UNL     1      30.844  78.186  22.199  1.00  0.00     0.417 C 
ATOM     20  F   UNL     1      30.953  77.819  23.477  1.00  0.00    -0.166 F 
ATOM     21  F   UNL     1      31.330  79.426  22.025  1.00  0.00    -0.166 F 
ATOM     22  F   UNL     1      29.531  78.151  21.920  1.00  0.00    -0.166 F 
ENDBRANCH  15  19
ENDBRANCH   9  12
ENDBRANCH   1   8
BRANCH   5  23
ATOM     23  C   UNL     1      33.169  69.891  15.657  1.00  0.00     0.086 C 
ATOM     24  N   UNL     1      32.665  69.619  17.006  1.00  0.00    -0.287 NA
ATOM     25  C   UNL     1      32.088  69.604  14.592  1.00  0.00     0.190 C 
ATOM     26  C   UNL     1      31.417  69.733  17.278  1.00  0.00     0.161 C 
ATOM     27  O   UNL     1      30.951  70.406  14.975  1.00  0.00    -0.360 OA
ATOM     28  C   UNL     1      30.355  70.195  16.260  1.00  0.00     0.188 C 
ATOM     29  C   UNL     1      34.432  69.000  15.454  1.00  0.00     0.038 C 
ATOM     30  H   UNL     1      32.926  68.647  17.227  1.00  0.00     0.125 HD
ATOM     31  C   UNL     1      29.700  71.554  16.670  1.00  0.00     0.056 C 
BRANCH  26  32
ATOM     32  N   UNL     1      31.045  69.449  18.515  1.00  0.00    -0.313 NA
ATOM     33  H   UNL     1      31.848  69.067  19.036  1.00  0.00     0.120 HD
ATOM     34  H   UNL     1      30.711  70.306  18.978  1.00  0.00     0.120 HD
ENDBRANCH  26  32
BRANCH  28  35
ATOM     35  C   UNL     1      29.308  69.093  16.017  1.00  0.00     0.420 C 
ATOM     36  F   UNL     1      28.916  69.180  14.729  1.00  0.00    -0.168 F 
ATOM     37  F   UNL     1      29.918  67.887  16.191  1.00  0.00    -0.168 F 
ATOM     38  F   UNL     1      28.244  69.255  16.840  1.00  0.00    -0.168 F 
ENDBRANCH  28  35
ENDBRANCH   5  23
TORSDOF 6
ENDMDL
MODEL 7
REMARK VINA RESULT:    -8.340      4.929      8.763
REMARK INTER + INTRA:         -11.599
REMARK INTER:                 -10.700
REMARK INTRA:                  -0.900
REMARK UNBOUND:                -0.578
REMARK SMILES C[C@@]1(c2nc(NC(=O)c3ncc(C(F)(F)F)cc3Cl)ccc2F)CO[C@@](C)(C(F)(F)F)C(N)N1
REMARK SMILES IDX 5 1 20 2 21 3 22 4 3 5 4 6 23 7 6 8 7 9 8 10 9 12 18 13
REMARK SMILES IDX 17 14 12 15 10 16 11 17 19 18 13 19 14 20 15 21 16 22 2 23
REMARK SMILES IDX 34 24 24 25 32 26 25 27 26 28 1 29 27 31 33 32 28 35 29 36
REMARK SMILES IDX 30 37 31 38
REMARK H PARENT 6 11 34 30 33 33 33 34
ROOT
ATOM      1  C   UNL     1      32.485  75.155  16.553  1.00  0.00     0.133 A 
ATOM      2  C   UNL     1      33.701  75.682  16.062  1.00  0.00     0.050 A 
ATOM      3  C   UNL     1      34.076  76.953  16.489  1.00  0.00     0.045 A 
ATOM      4  C   UNL     1      33.250  77.647  17.359  1.00  0.00     0.146 A 
ATOM      5  C   UNL     1      31.996  77.112  17.762  1.00  0.00     0.101 A 
ATOM      6  N   UNL     1      31.687  75.883  17.321  1.00  0.00    -0.231 NA
ATOM      7  F   UNL     1      33.596  78.860  17.756  1.00  0.00    -0.205 F 
ENDROOT
BRANCH   1   8
ATOM      8  N   UNL     1      32.025  73.874  16.227  1.00  0.00    -0.305 N 
ATOM      9  C   UNL     1      31.505  73.459  15.069  1.00  0.00     0.276 C 
ATOM     10  O   UNL     1      31.238  74.181  14.113  1.00  0.00    -0.267 OA
ATOM     11  H   UNL     1      32.095  73.165  16.971  1.00  0.00     0.171 HD
BRANCH   9  12
ATOM     12  C   UNL     1      31.165  72.019  14.975  1.00  0.00     0.147 A 
ATOM     13  C   UNL     1      32.114  70.987  15.047  1.00  0.00     0.073 A 
ATOM     14  C   UNL     1      31.699  69.670  14.960  1.00  0.00     0.037 A 
ATOM     15  C   UNL     1      30.334  69.435  14.775  1.00  0.00     0.075 A 
ATOM     16  N   UNL     1      29.858  71.752  14.793  1.00  0.00    -0.249 NA
ATOM     17  C   UNL     1      29.441  70.488  14.702  1.00  0.00     0.125 A 
ATOM     18  Cl  UNL     1      33.823  71.319  15.305  1.00  0.00    -0.082 Cl
BRANCH  15  19
ATOM     19  C   UNL     1      29.817  68.036  14.650  1.00  0.00     0.417 C 
ATOM     20  F   UNL     1      29.136  67.894  13.512  1.00  0.00    -0.166 F 
ATOM     21  F   UNL     1      30.805  67.128  14.722  1.00  0.00    -0.166 F 
ATOM     22  F   UNL     1      28.925  67.842  15.635  1.00  0.00    -0.166 F 
ENDBRANCH  15  19
ENDBRANCH   9  12
ENDBRANCH   1   8
BRANCH   5  23
ATOM     23  C   UNL     1      30.999  77.835  18.677  1.00  0.00     0.086 C 
ATOM     24  N   UNL     1      29.847  76.965  18.928  1.00  0.00    -0.287 NA
ATOM     25  C   UNL     1      31.712  78.207  19.995  1.00  0.00     0.190 C 
ATOM     26  C   UNL     1      29.824  76.179  19.941  1.00  0.00     0.161 C 
ATOM     27  O   UNL     1      32.042  76.948  20.620  1.00  0.00    -0.360 OA
ATOM     28  C   UNL     1      30.986  76.037  20.945  1.00  0.00     0.188 C 
ATOM     29  C   UNL     1      30.463  79.096  17.933  1.00  0.00     0.038 C 
ATOM     30  H   UNL     1      29.026  77.582  19.017  1.00  0.00     0.125 HD
ATOM     31  C   UNL     1      31.616  74.606  20.917  1.00  0.00     0.056 C 
BRANCH  26  32
ATOM     32  N   UNL     1      28.737  75.443  20.104  1.00  0.00    -0.313 NA
ATOM     33  H   UNL     1      28.454  75.043  19.197  1.00  0.00     0.120 HD
ATOM     34  H   UNL     1      28.935  74.681  20.768  1.00  0.00     0.120 HD
ENDBRANCH  26  32
BRANCH  28  35
ATOM     35  C   UNL     1      30.547  76.454  22.359  1.00  0.00     0.420 C 
ATOM     36  F   UNL     1      30.216  75.332  23.032  1.00  0.00    -0.168 F 
ATOM     37  F   UNL     1      31.618  77.018  22.984  1.00  0.00    -0.168 F 
ATOM     38  F   UNL     1      29.484  77.293  22.301  1.00  0.00    -0.168 F 
ENDBRANCH  28  35
ENDBRANCH   5  23
TORSDOF 6
ENDMDL
MODEL 8
REMARK VINA RESULT:    -8.085      3.623      5.151
REMARK INTER + INTRA:         -11.263
REMARK INTER:                 -10.257
REMARK INTRA:                  -1.005
REMARK UNBOUND:                -0.578
REMARK SMILES C[C@@]1(c2nc(NC(=O)c3ncc(C(F)(F)F)cc3Cl)ccc2F)CO[C@@](C)(C(F)(F)F)C(N)N1
REMARK SMILES IDX 5 1 20 2 21 3 22 4 3 5 4 6 23 7 6 8 7 9 8 10 9 12 18 13
REMARK SMILES IDX 17 14 12 15 10 16 11 17 19 18 13 19 14 20 15 21 16 22 2 23
REMARK SMILES IDX 34 24 24 25 32 26 25 27 26 28 1 29 27 31 33 32 28 35 29 36
REMARK SMILES IDX 30 37 31 38
REMARK H PARENT 6 11 34 30 33 33 33 34
ROOT
ATOM      1  C   UNL     1      29.197  73.599  19.544  1.00  0.00     0.133 A 
ATOM      2  C   UNL     1      28.996  72.996  20.805  1.00  0.00     0.050 A 
ATOM      3  C   UNL     1      29.021  71.605  20.871  1.00  0.00     0.045 A 
ATOM      4  C   UNL     1      29.229  70.876  19.712  1.00  0.00     0.146 A 
ATOM      5  C   UNL     1      29.346  71.522  18.450  1.00  0.00     0.101 A 
ATOM      6  N   UNL     1      29.315  72.863  18.447  1.00  0.00    -0.231 NA
ATOM      7  F   UNL     1      29.240  69.555  19.768  1.00  0.00    -0.205 F 
ENDROOT
BRANCH   1   8
ATOM      8  N   UNL     1      29.234  74.986  19.360  1.00  0.00    -0.305 N 
ATOM      9  C   UNL     1      30.232  75.825  19.650  1.00  0.00     0.276 C 
ATOM     10  O   UNL     1      31.265  75.522  20.242  1.00  0.00    -0.267 OA
ATOM     11  H   UNL     1      28.390  75.412  18.952  1.00  0.00     0.171 HD
BRANCH   9  12
ATOM     12  C   UNL     1      30.029  77.246  19.281  1.00  0.00     0.147 A 
ATOM     13  C   UNL     1      29.482  78.207  20.147  1.00  0.00     0.073 A 
ATOM     14  C   UNL     1      29.341  79.513  19.715  1.00  0.00     0.037 A 
ATOM     15  C   UNL     1      29.732  79.807  18.406  1.00  0.00     0.075 A 
ATOM     16  N   UNL     1      30.392  77.567  18.024  1.00  0.00    -0.249 NA
ATOM     17  C   UNL     1      30.257  78.822  17.590  1.00  0.00     0.125 A 
ATOM     18  Cl  UNL     1      29.022  77.808  21.798  1.00  0.00    -0.082 Cl
BRANCH  15  19
ATOM     19  C   UNL     1      29.587  81.195  17.865  1.00  0.00     0.417 C 
ATOM     20  F   UNL     1      29.212  81.156  16.586  1.00  0.00    -0.166 F 
ATOM     21  F   UNL     1      28.720  81.926  18.586  1.00  0.00    -0.166 F 
ATOM     22  F   UNL     1      30.804  81.764  17.872  1.00  0.00    -0.166 F 
ENDBRANCH  15  19
ENDBRANCH   9  12
ENDBRANCH   1   8
BRANCH   5  23
ATOM     23  C   UNL     1      29.523  70.789  17.114  1.00  0.00     0.086 C 
ATOM     24  N   UNL     1      29.573  71.767  16.024  1.00  0.00    -0.287 NA
ATOM     25  C   UNL     1      30.822  69.956  17.172  1.00  0.00     0.190 C 
ATOM     26  C   UNL     1      30.691  72.250  15.623  1.00  0.00     0.161 C 
ATOM     27  O   UNL     1      31.890  70.920  17.286  1.00  0.00    -0.360 OA
ATOM     28  C   UNL     1      32.054  71.899  16.253  1.00  0.00     0.188 C 
ATOM     29  C   UNL     1      28.272  69.892  16.866  1.00  0.00     0.038 C 
ATOM     30  H   UNL     1      29.137  71.316  15.205  1.00  0.00     0.125 HD
ATOM     31  C   UNL     1      32.727  73.139  16.926  1.00  0.00     0.056 C 
BRANCH  26  32
ATOM     32  N   UNL     1      30.646  73.111  14.620  1.00  0.00    -0.313 NA
ATOM     33  H   UNL     1      31.468  73.730  14.663  1.00  0.00     0.120 HD
ATOM     34  H   UNL     1      30.648  72.598  13.727  1.00  0.00     0.120 HD
ENDBRANCH  26  32
BRANCH  28  35
ATOM     35  C   UNL     1      32.977  71.218  15.227  1.00  0.00     0.420 C 
ATOM     36  F   UNL     1      33.852  70.451  15.911  1.00  0.00    -0.168 F 
ATOM     37  F   UNL     1      32.213  70.398  14.453  1.00  0.00    -0.168 F 
ATOM     38  F   UNL     1      33.643  72.145  14.496  1.00  0.00    -0.168 F 
ENDBRANCH  28  35
ENDBRANCH   5  23
TORSDOF 6
ENDMDL
MODEL 9
REMARK VINA RESULT:    -8.078      4.878      8.694
REMARK INTER + INTRA:         -11.254
REMARK INTER:                 -10.529
REMARK INTRA:                  -0.725
REMARK UNBOUND:                -0.578
REMARK SMILES C[C@@]1(c2nc(NC(=O)c3ncc(C(F)(F)F)cc3Cl)ccc2F)CO[C@@](C)(C(F)(F)F)C(N)N1
REMARK SMILES IDX 5 1 20 2 21 3 22 4 3 5 4 6 23 7 6 8 7 9 8 10 9 12 18 13
REMARK SMILES IDX 17 14 12 15 10 16 11 17 19 18 13 19 14 20 15 21 16 22 2 23
REMARK SMILES IDX 34 24 24 25 32 26 25 27 26 28 1 29 27 31 33 32 28 35 29 36
REMARK SMILES IDX 30 37 31 38
REMARK H PARENT 6 11 34 30 33 33 33 34
ROOT
ATOM      1  C   UNL     1      30.867  75.575  16.185  1.00  0.00     0.133 A 
ATOM      2  C   UNL     1      30.205  76.514  15.363  1.00  0.00     0.050 A 
ATOM      3  C   UNL     1      30.381  77.865  15.649  1.00  0.00     0.045 A 
ATOM      4  C   UNL     1      31.179  78.233  16.720  1.00  0.00     0.146 A 
ATOM      5  C   UNL     1      31.761  77.252  17.571  1.00  0.00     0.101 A 
ATOM      6  N   UNL     1      31.558  75.966  17.247  1.00  0.00    -0.231 NA
ATOM      7  F   UNL     1      31.338  79.515  17.003  1.00  0.00    -0.205 F 
ENDROOT
BRANCH   1   8
ATOM      8  N   UNL     1      30.799  74.193  15.971  1.00  0.00    -0.305 N 
ATOM      9  C   UNL     1      29.949  73.320  16.517  1.00  0.00     0.276 C 
ATOM     10  O   UNL     1      29.139  73.578  17.404  1.00  0.00    -0.267 OA
ATOM     11  H   UNL     1      31.488  73.803  15.313  1.00  0.00     0.171 HD
BRANCH   9  12
ATOM     12  C   UNL     1      30.055  71.917  16.053  1.00  0.00     0.147 A 
ATOM     13  C   UNL     1      30.952  70.981  16.594  1.00  0.00     0.073 A 
ATOM     14  C   UNL     1      30.970  69.689  16.100  1.00  0.00     0.037 A 
ATOM     15  C   UNL     1      30.096  69.385  15.052  1.00  0.00     0.075 A 
ATOM     16  N   UNL     1      29.230  71.586  15.041  1.00  0.00    -0.249 NA
ATOM     17  C   UNL     1      29.238  70.346  14.550  1.00  0.00     0.125 A 
ATOM     18  Cl  UNL     1      32.022  71.392  17.929  1.00  0.00    -0.082 Cl
BRANCH  15  19
ATOM     19  C   UNL     1      30.078  68.013  14.456  1.00  0.00     0.417 C 
ATOM     20  F   UNL     1      29.165  67.256  15.064  1.00  0.00    -0.166 F 
ATOM     21  F   UNL     1      29.855  68.044  13.132  1.00  0.00    -0.166 F 
ATOM     22  F   UNL     1      31.263  67.438  14.721  1.00  0.00    -0.166 F 
ENDBRANCH  15  19
ENDBRANCH   9  12
ENDBRANCH   1   8
BRANCH   5  23
ATOM     23  C   UNL     1      32.611  77.573  18.807  1.00  0.00     0.086 C 
ATOM     24  N   UNL     1      31.844  78.429  19.718  1.00  0.00    -0.287 NA
ATOM     25  C   UNL     1      33.010  76.249  19.494  1.00  0.00     0.190 C 
ATOM     26  C   UNL     1      31.126  77.921  20.651  1.00  0.00     0.161 C 
ATOM     27  O   UNL     1      31.771  75.668  19.955  1.00  0.00    -0.360 OA
ATOM     28  C   UNL     1      30.962  76.405  20.880  1.00  0.00     0.188 C 
ATOM     29  C   UNL     1      33.860  78.390  18.357  1.00  0.00     0.038 C 
ATOM     30  H   UNL     1      32.525  79.052  20.177  1.00  0.00     0.125 HD
ATOM     31  C   UNL     1      29.490  75.932  20.648  1.00  0.00     0.056 C 
BRANCH  26  32
ATOM     32  N   UNL     1      30.484  78.766  21.439  1.00  0.00    -0.313 NA
ATOM     33  H   UNL     1      29.998  79.470  20.865  1.00  0.00     0.120 HD
ATOM     34  H   UNL     1      29.795  78.251  22.006  1.00  0.00     0.120 HD
ENDBRANCH  26  32
BRANCH  28  35
ATOM     35  C   UNL     1      31.496  75.995  22.263  1.00  0.00     0.420 C 
ATOM     36  F   UNL     1      32.506  76.833  22.576  1.00  0.00    -0.168 F 
ATOM     37  F   UNL     1      30.498  76.180  23.172  1.00  0.00    -0.168 F 
ATOM     38  F   UNL     1      31.943  74.716  22.242  1.00  0.00    -0.168 F 
ENDBRANCH  28  35
ENDBRANCH   5  23
TORSDOF 6
ENDMDL
