MODEL 1
REMARK VINA RESULT:    -7.135      0.000      0.000
REMARK INTER + INTRA:         -11.702
REMARK INTER:                 -10.263
REMARK INTRA:                  -1.439
REMARK UNBOUND:                -1.439
REMARK SMILES COc1cc(C[C@H]2C(=O)OC[C@@H]2Cc2ccc(OC)c(OC)c2)ccc1O
REMARK SMILES IDX 10 1 9 2 12 3 7 4 11 5 8 6 13 7 14 8 23 9 15 10 20 11 16 12
REMARK SMILES IDX 17 13 21 14 22 15 18 16 19 17 6 18 5 19 4 20 24 21 3 22
REMARK SMILES IDX 25 23 26 24 2 25 1 26 27 27
REMARK H PARENT 27 28
ROOT
ATOM      1  O   UNL     1      31.278  77.731  22.735  1.00  0.00    -0.465 OA
ATOM      2  O   UNL     1      30.569  75.553  22.667  1.00  0.00    -0.252 OA
ATOM      3  C   UNL     1      30.464  78.469  20.662  1.00  0.00     0.046 C 
ATOM      4  C   UNL     1      30.427  76.945  20.681  1.00  0.00     0.110 C 
ATOM      5  C   UNL     1      31.437  78.787  21.781  1.00  0.00     0.237 C 
ATOM      6  C   UNL     1      30.740  76.633  22.123  1.00  0.00     0.309 C 
ENDROOT
BRANCH   3   7
ATOM      7  C   UNL     1      29.083  79.061  20.954  1.00  0.00     0.043 C 
BRANCH   7   8
ATOM      8  C   UNL     1      28.325  79.368  19.688  1.00  0.00    -0.044 A 
ATOM      9  C   UNL     1      29.023  79.562  18.505  1.00  0.00     0.054 A 
ATOM     10  C   UNL     1      26.941  79.451  19.725  1.00  0.00     0.008 A 
ATOM     11  C   UNL     1      28.322  79.847  17.334  1.00  0.00     0.160 A 
ATOM     12  C   UNL     1      26.239  79.735  18.553  1.00  0.00     0.051 A 
ATOM     13  C   UNL     1      26.929  79.933  17.358  1.00  0.00     0.160 A 
BRANCH  11  14
ATOM     14  O   UNL     1      29.006  80.037  16.172  1.00  0.00    -0.493 OA
ATOM     15  C   UNL     1      30.140  80.900  16.220  1.00  0.00     0.278 C 
ENDBRANCH  11  14
BRANCH  13  16
ATOM     16  O   UNL     1      26.233  80.208  16.220  1.00  0.00    -0.493 OA
ATOM     17  C   UNL     1      24.837  80.465  16.359  1.00  0.00     0.278 C 
ENDBRANCH  13  16
ENDBRANCH   7   8
ENDBRANCH   3   7
BRANCH   4  18
ATOM     18  C   UNL     1      31.477  76.313  19.777  1.00  0.00     0.051 C 
BRANCH  18  19
ATOM     19  C   UNL     1      30.880  75.273  18.863  1.00  0.00    -0.043 A 
ATOM     20  C   UNL     1      29.621  74.762  19.143  1.00  0.00     0.054 A 
ATOM     21  C   UNL     1      31.600  74.845  17.757  1.00  0.00     0.008 A 
ATOM     22  C   UNL     1      29.070  73.800  18.297  1.00  0.00     0.160 A 
ATOM     23  C   UNL     1      31.047  73.882  16.913  1.00  0.00     0.050 A 
ATOM     24  C   UNL     1      29.783  73.360  17.182  1.00  0.00     0.157 A 
BRANCH  22  25
ATOM     25  O   UNL     1      27.833  73.297  18.571  1.00  0.00    -0.493 OA
ATOM     26  C   UNL     1      27.760  72.242  19.528  1.00  0.00     0.278 C 
ENDBRANCH  22  25
BRANCH  24  27
ATOM     27  O   UNL     1      29.254  72.421  16.349  1.00  0.00    -0.504 OA
ATOM     28  H   UNL     1      29.843  71.917  15.734  1.00  0.00     0.293 HD
ENDBRANCH  24  27
ENDBRANCH  18  19
ENDBRANCH   4  18
TORSDOF 8
ENDMDL
MODEL 2
REMARK VINA RESULT:    -7.079      1.551      2.283
REMARK INTER + INTRA:         -11.622
REMARK INTER:                 -10.112
REMARK INTRA:                  -1.510
REMARK UNBOUND:                -1.439
REMARK SMILES COc1cc(C[C@H]2C(=O)OC[C@@H]2Cc2ccc(OC)c(OC)c2)ccc1O
REMARK SMILES IDX 10 1 9 2 12 3 7 4 11 5 8 6 13 7 14 8 23 9 15 10 20 11 16 12
REMARK SMILES IDX 17 13 21 14 22 15 18 16 19 17 6 18 5 19 4 20 24 21 3 22
REMARK SMILES IDX 25 23 26 24 2 25 1 26 27 27
REMARK H PARENT 27 28
ROOT
ATOM      1  O   UNL     1      33.772  78.180  20.854  1.00  0.00    -0.465 OA
ATOM      2  O   UNL     1      33.152  77.023  22.732  1.00  0.00    -0.252 OA
ATOM      3  C   UNL     1      31.796  77.983  19.605  1.00  0.00     0.046 C 
ATOM      4  C   UNL     1      31.747  76.977  20.751  1.00  0.00     0.110 C 
ATOM      5  C   UNL     1      33.275  78.306  19.518  1.00  0.00     0.237 C 
ATOM      6  C   UNL     1      32.939  77.378  21.583  1.00  0.00     0.309 C 
ENDROOT
BRANCH   3   7
ATOM      7  C   UNL     1      30.981  79.236  19.933  1.00  0.00     0.043 C 
BRANCH   7   8
ATOM      8  C   UNL     1      29.852  79.442  18.955  1.00  0.00    -0.044 A 
ATOM      9  C   UNL     1      30.102  79.343  17.594  1.00  0.00     0.054 A 
ATOM     10  C   UNL     1      28.581  79.728  19.432  1.00  0.00     0.008 A 
ATOM     11  C   UNL     1      29.058  79.535  16.689  1.00  0.00     0.160 A 
ATOM     12  C   UNL     1      27.536  79.919  18.527  1.00  0.00     0.051 A 
ATOM     13  C   UNL     1      27.775  79.823  17.157  1.00  0.00     0.160 A 
BRANCH  11  14
ATOM     14  O   UNL     1      29.302  79.438  15.353  1.00  0.00    -0.493 OA
ATOM     15  C   UNL     1      29.918  78.238  14.892  1.00  0.00     0.278 C 
ENDBRANCH  11  14
BRANCH  13  16
ATOM     16  O   UNL     1      26.747  80.010  16.283  1.00  0.00    -0.493 OA
ATOM     17  C   UNL     1      25.428  79.774  16.772  1.00  0.00     0.278 C 
ENDBRANCH  13  16
ENDBRANCH   7   8
ENDBRANCH   3   7
BRANCH   4  18
ATOM     18  C   UNL     1      31.906  75.536  20.285  1.00  0.00     0.051 C 
BRANCH  18  19
ATOM     19  C   UNL     1      30.581  74.910  19.929  1.00  0.00    -0.043 A 
ATOM     20  C   UNL     1      30.511  74.025  18.863  1.00  0.00     0.054 A 
ATOM     21  C   UNL     1      29.455  75.230  20.673  1.00  0.00     0.008 A 
ATOM     22  C   UNL     1      29.286  73.446  18.534  1.00  0.00     0.160 A 
ATOM     23  C   UNL     1      28.230  74.651  20.342  1.00  0.00     0.050 A 
ATOM     24  C   UNL     1      28.145  73.759  19.273  1.00  0.00     0.157 A 
BRANCH  22  25
ATOM     25  O   UNL     1      29.216  72.576  17.487  1.00  0.00    -0.493 OA
ATOM     26  C   UNL     1      30.450  72.162  16.905  1.00  0.00     0.278 C 
ENDBRANCH  22  25
BRANCH  24  27
ATOM     27  O   UNL     1      26.943  73.199  18.961  1.00  0.00    -0.504 OA
ATOM     28  H   UNL     1      26.240  73.746  18.528  1.00  0.00     0.293 HD
ENDBRANCH  24  27
ENDBRANCH  18  19
ENDBRANCH   4  18
TORSDOF 8
ENDMDL
MODEL 3
REMARK VINA RESULT:    -7.068      4.509      7.453
REMARK INTER + INTRA:         -11.606
REMARK INTER:                  -9.609
REMARK INTRA:                  -1.997
REMARK UNBOUND:                -1.439
REMARK SMILES COc1cc(C[C@H]2C(=O)OC[C@@H]2Cc2ccc(OC)c(OC)c2)ccc1O
REMARK SMILES IDX 10 1 9 2 12 3 7 4 11 5 8 6 13 7 14 8 23 9 15 10 20 11 16 12
REMARK SMILES IDX 17 13 21 14 22 15 18 16 19 17 6 18 5 19 4 20 24 21 3 22
REMARK SMILES IDX 25 23 26 24 2 25 1 26 27 27
REMARK H PARENT 27 28
ROOT
ATOM      1  O   UNL     1      33.313  76.193  17.201  1.00  0.00    -0.465 OA
ATOM      2  O   UNL     1      31.149  76.388  17.931  1.00  0.00    -0.252 OA
ATOM      3  C   UNL     1      33.752  73.988  17.869  1.00  0.00     0.046 C 
ATOM      4  C   UNL     1      32.486  74.464  18.574  1.00  0.00     0.110 C 
ATOM      5  C   UNL     1      34.398  75.292  17.442  1.00  0.00     0.237 C 
ATOM      6  C   UNL     1      32.203  75.772  17.879  1.00  0.00     0.309 C 
ENDROOT
BRANCH   3   7
ATOM      7  C   UNL     1      33.417  73.120  16.654  1.00  0.00     0.043 C 
BRANCH   7   8
ATOM      8  C   UNL     1      32.432  72.030  16.996  1.00  0.00    -0.044 A 
ATOM      9  C   UNL     1      31.227  71.961  16.311  1.00  0.00     0.054 A 
ATOM     10  C   UNL     1      32.747  71.115  17.988  1.00  0.00     0.008 A 
ATOM     11  C   UNL     1      30.316  70.954  16.628  1.00  0.00     0.160 A 
ATOM     12  C   UNL     1      31.836  70.106  18.304  1.00  0.00     0.051 A 
ATOM     13  C   UNL     1      30.621  70.027  17.625  1.00  0.00     0.160 A 
BRANCH  11  14
ATOM     14  O   UNL     1      29.133  70.885  15.958  1.00  0.00    -0.493 OA
ATOM     15  C   UNL     1      29.145  70.241  14.686  1.00  0.00     0.278 C 
ENDBRANCH  11  14
BRANCH  13  16
ATOM     16  O   UNL     1      29.740  69.037  17.941  1.00  0.00    -0.493 OA
ATOM     17  C   UNL     1      29.882  68.426  19.223  1.00  0.00     0.278 C 
ENDBRANCH  13  16
ENDBRANCH   7   8
ENDBRANCH   3   7
BRANCH   4  18
ATOM     18  C   UNL     1      32.689  74.705  20.063  1.00  0.00     0.051 C 
BRANCH  18  19
ATOM     19  C   UNL     1      31.523  74.206  20.879  1.00  0.00    -0.043 A 
ATOM     20  C   UNL     1      30.710  73.207  20.364  1.00  0.00     0.054 A 
ATOM     21  C   UNL     1      31.283  74.754  22.130  1.00  0.00     0.008 A 
ATOM     22  C   UNL     1      29.632  72.746  21.118  1.00  0.00     0.160 A 
ATOM     23  C   UNL     1      30.203  74.293  22.883  1.00  0.00     0.050 A 
ATOM     24  C   UNL     1      29.378  73.289  22.378  1.00  0.00     0.157 A 
BRANCH  22  25
ATOM     25  O   UNL     1      28.833  71.764  20.614  1.00  0.00    -0.493 OA
ATOM     26  C   UNL     1      28.093  72.073  19.434  1.00  0.00     0.278 C 
ENDBRANCH  22  25
BRANCH  24  27
ATOM     27  O   UNL     1      28.328  72.845  23.124  1.00  0.00    -0.504 OA
ATOM     28  H   UNL     1      28.115  73.282  23.986  1.00  0.00     0.293 HD
ENDBRANCH  24  27
ENDBRANCH  18  19
ENDBRANCH   4  18
TORSDOF 8
ENDMDL
MODEL 4
REMARK VINA RESULT:    -6.976      3.116      6.048
REMARK INTER + INTRA:         -11.473
REMARK INTER:                  -9.699
REMARK INTRA:                  -1.774
REMARK UNBOUND:                -1.439
REMARK SMILES COc1cc(C[C@H]2C(=O)OC[C@@H]2Cc2ccc(OC)c(OC)c2)ccc1O
REMARK SMILES IDX 10 1 9 2 12 3 7 4 11 5 8 6 13 7 14 8 23 9 15 10 20 11 16 12
REMARK SMILES IDX 17 13 21 14 22 15 18 16 19 17 6 18 5 19 4 20 24 21 3 22
REMARK SMILES IDX 25 23 26 24 2 25 1 26 27 27
REMARK H PARENT 27 28
ROOT
ATOM      1  O   UNL     1      28.117  72.380  19.932  1.00  0.00    -0.465 OA
ATOM      2  O   UNL     1      28.661  73.630  18.090  1.00  0.00    -0.252 OA
ATOM      3  C   UNL     1      29.955  72.881  21.299  1.00  0.00     0.046 C 
ATOM      4  C   UNL     1      30.280  73.316  19.874  1.00  0.00     0.110 C 
ATOM      5  C   UNL     1      28.810  71.909  21.092  1.00  0.00     0.237 C 
ATOM      6  C   UNL     1      28.951  73.159  19.179  1.00  0.00     0.309 C 
ENDROOT
BRANCH   3   7
ATOM      7  C   UNL     1      29.514  74.070  22.156  1.00  0.00     0.043 C 
BRANCH   7   8
ATOM      8  C   UNL     1      30.500  75.209  22.086  1.00  0.00    -0.044 A 
ATOM      9  C   UNL     1      30.069  76.459  21.666  1.00  0.00     0.054 A 
ATOM     10  C   UNL     1      31.822  74.989  22.443  1.00  0.00     0.008 A 
ATOM     11  C   UNL     1      30.980  77.512  21.601  1.00  0.00     0.160 A 
ATOM     12  C   UNL     1      32.734  76.043  22.378  1.00  0.00     0.051 A 
ATOM     13  C   UNL     1      32.313  77.304  21.957  1.00  0.00     0.160 A 
BRANCH  11  14
ATOM     14  O   UNL     1      30.559  78.740  21.189  1.00  0.00    -0.493 OA
ATOM     15  C   UNL     1      29.174  78.879  20.879  1.00  0.00     0.278 C 
ENDBRANCH  11  14
BRANCH  13  16
ATOM     16  O   UNL     1      33.213  78.325  21.899  1.00  0.00    -0.493 OA
ATOM     17  C   UNL     1      33.994  78.436  20.712  1.00  0.00     0.278 C 
ENDBRANCH  13  16
ENDBRANCH   7   8
ENDBRANCH   3   7
BRANCH   4  18
ATOM     18  C   UNL     1      31.320  72.430  19.204  1.00  0.00     0.051 C 
BRANCH  18  19
ATOM     19  C   UNL     1      32.352  73.238  18.459  1.00  0.00    -0.043 A 
ATOM     20  C   UNL     1      32.540  73.017  17.102  1.00  0.00     0.054 A 
ATOM     21  C   UNL     1      33.097  74.188  19.142  1.00  0.00     0.008 A 
ATOM     22  C   UNL     1      33.495  73.764  16.413  1.00  0.00     0.160 A 
ATOM     23  C   UNL     1      34.052  74.934  18.451  1.00  0.00     0.050 A 
ATOM     24  C   UNL     1      34.251  74.723  17.088  1.00  0.00     0.157 A 
BRANCH  22  25
ATOM     25  O   UNL     1      33.680  73.549  15.080  1.00  0.00    -0.493 OA
ATOM     26  C   UNL     1      34.306  72.324  14.702  1.00  0.00     0.278 C 
ENDBRANCH  22  25
BRANCH  24  27
ATOM     27  O   UNL     1      35.186  75.459  16.424  1.00  0.00    -0.504 OA
ATOM     28  H   UNL     1      36.051  75.667  16.859  1.00  0.00     0.293 HD
ENDBRANCH  24  27
ENDBRANCH  18  19
ENDBRANCH   4  18
TORSDOF 8
ENDMDL
MODEL 5
REMARK VINA RESULT:    -6.935      3.779      5.650
REMARK INTER + INTRA:         -11.415
REMARK INTER:                  -9.345
REMARK INTRA:                  -2.070
REMARK UNBOUND:                -1.439
REMARK SMILES COc1cc(C[C@H]2C(=O)OC[C@@H]2Cc2ccc(OC)c(OC)c2)ccc1O
REMARK SMILES IDX 10 1 9 2 12 3 7 4 11 5 8 6 13 7 14 8 23 9 15 10 20 11 16 12
REMARK SMILES IDX 17 13 21 14 22 15 18 16 19 17 6 18 5 19 4 20 24 21 3 22
REMARK SMILES IDX 25 23 26 24 2 25 1 26 27 27
REMARK H PARENT 27 28
ROOT
ATOM      1  O   UNL     1      31.826  78.172  22.415  1.00  0.00    -0.465 OA
ATOM      2  O   UNL     1      29.650  77.687  21.882  1.00  0.00    -0.252 OA
ATOM      3  C   UNL     1      32.902  76.412  21.299  1.00  0.00     0.046 C 
ATOM      4  C   UNL     1      31.413  76.090  21.388  1.00  0.00     0.110 C 
ATOM      5  C   UNL     1      33.072  77.470  22.371  1.00  0.00     0.237 C 
ATOM      6  C   UNL     1      30.834  77.386  21.898  1.00  0.00     0.309 C 
ENDROOT
BRANCH   3   7
ATOM      7  C   UNL     1      33.267  76.967  19.920  1.00  0.00     0.043 C 
BRANCH   7   8
ATOM      8  C   UNL     1      33.305  75.885  18.871  1.00  0.00    -0.044 A 
ATOM      9  C   UNL     1      32.628  76.073  17.674  1.00  0.00     0.054 A 
ATOM     10  C   UNL     1      34.015  74.720  19.118  1.00  0.00     0.008 A 
ATOM     11  C   UNL     1      32.662  75.072  16.703  1.00  0.00     0.160 A 
ATOM     12  C   UNL     1      34.049  73.719  18.147  1.00  0.00     0.051 A 
ATOM     13  C   UNL     1      33.373  73.895  16.940  1.00  0.00     0.160 A 
BRANCH  11  14
ATOM     14  O   UNL     1      31.999  75.255  15.528  1.00  0.00    -0.493 OA
ATOM     15  C   UNL     1      30.680  75.790  15.605  1.00  0.00     0.278 C 
ENDBRANCH  11  14
BRANCH  13  16
ATOM     16  O   UNL     1      33.415  72.911  15.999  1.00  0.00    -0.493 OA
ATOM     17  C   UNL     1      33.658  71.583  16.458  1.00  0.00     0.278 C 
ENDBRANCH  13  16
ENDBRANCH   7   8
ENDBRANCH   3   7
BRANCH   4  18
ATOM     18  C   UNL     1      31.105  74.967  22.368  1.00  0.00     0.051 C 
BRANCH  18  19
ATOM     19  C   UNL     1      30.440  73.796  21.690  1.00  0.00    -0.043 A 
ATOM     20  C   UNL     1      30.879  73.394  20.438  1.00  0.00     0.054 A 
ATOM     21  C   UNL     1      29.399  73.140  22.331  1.00  0.00     0.008 A 
ATOM     22  C   UNL     1      30.263  72.311  19.811  1.00  0.00     0.160 A 
ATOM     23  C   UNL     1      28.783  72.057  21.703  1.00  0.00     0.050 A 
ATOM     24  C   UNL     1      29.215  71.643  20.444  1.00  0.00     0.157 A 
BRANCH  22  25
ATOM     25  O   UNL     1      30.694  71.915  18.581  1.00  0.00    -0.493 OA
ATOM     26  C   UNL     1      30.046  72.494  17.449  1.00  0.00     0.278 C 
ENDBRANCH  22  25
BRANCH  24  27
ATOM     27  O   UNL     1      28.607  70.582  19.842  1.00  0.00    -0.504 OA
ATOM     28  H   UNL     1      27.626  70.588  19.704  1.00  0.00     0.293 HD
ENDBRANCH  24  27
ENDBRANCH  18  19
ENDBRANCH   4  18
TORSDOF 8
ENDMDL
MODEL 6
REMARK VINA RESULT:    -6.925      4.028      5.943
REMARK INTER + INTRA:         -11.400
REMARK INTER:                  -9.522
REMARK INTRA:                  -1.878
REMARK UNBOUND:                -1.439
REMARK SMILES COc1cc(C[C@H]2C(=O)OC[C@@H]2Cc2ccc(OC)c(OC)c2)ccc1O
REMARK SMILES IDX 10 1 9 2 12 3 7 4 11 5 8 6 13 7 14 8 23 9 15 10 20 11 16 12
REMARK SMILES IDX 17 13 21 14 22 15 18 16 19 17 6 18 5 19 4 20 24 21 3 22
REMARK SMILES IDX 25 23 26 24 2 25 1 26 27 27
REMARK H PARENT 27 28
ROOT
ATOM      1  O   UNL     1      31.941  77.445  22.933  1.00  0.00    -0.465 OA
ATOM      2  O   UNL     1      29.730  77.479  22.333  1.00  0.00    -0.252 OA
ATOM      3  C   UNL     1      32.748  75.904  21.360  1.00  0.00     0.046 C 
ATOM      4  C   UNL     1      31.226  75.814  21.388  1.00  0.00     0.110 C 
ATOM      5  C   UNL     1      33.060  76.590  22.675  1.00  0.00     0.237 C 
ATOM      6  C   UNL     1      30.849  76.999  22.242  1.00  0.00     0.309 C 
ENDROOT
BRANCH   3   7
ATOM      7  C   UNL     1      33.231  76.745  20.176  1.00  0.00     0.043 C 
BRANCH   7   8
ATOM      8  C   UNL     1      33.539  75.894  18.970  1.00  0.00    -0.044 A 
ATOM      9  C   UNL     1      33.649  74.519  19.117  1.00  0.00     0.054 A 
ATOM     10  C   UNL     1      33.705  76.498  17.733  1.00  0.00     0.008 A 
ATOM     11  C   UNL     1      33.934  73.731  18.002  1.00  0.00     0.160 A 
ATOM     12  C   UNL     1      33.989  75.710  16.617  1.00  0.00     0.051 A 
ATOM     13  C   UNL     1      34.104  74.328  16.752  1.00  0.00     0.160 A 
BRANCH  11  14
ATOM     14  O   UNL     1      34.042  72.381  18.144  1.00  0.00    -0.493 OA
ATOM     15  C   UNL     1      32.829  71.635  18.195  1.00  0.00     0.278 C 
ENDBRANCH  11  14
BRANCH  13  16
ATOM     16  O   UNL     1      34.380  73.568  15.655  1.00  0.00    -0.493 OA
ATOM     17  C   UNL     1      33.772  73.959  14.425  1.00  0.00     0.278 C 
ENDBRANCH  13  16
ENDBRANCH   7   8
ENDBRANCH   3   7
BRANCH   4  18
ATOM     18  C   UNL     1      30.718  74.532  22.033  1.00  0.00     0.051 C 
BRANCH  18  19
ATOM     19  C   UNL     1      29.968  73.667  21.051  1.00  0.00    -0.043 A 
ATOM     20  C   UNL     1      29.960  74.012  19.708  1.00  0.00     0.054 A 
ATOM     21  C   UNL     1      29.300  72.541  21.508  1.00  0.00     0.008 A 
ATOM     22  C   UNL     1      29.266  73.212  18.800  1.00  0.00     0.160 A 
ATOM     23  C   UNL     1      28.605  71.742  20.599  1.00  0.00     0.050 A 
ATOM     24  C   UNL     1      28.589  72.077  19.246  1.00  0.00     0.157 A 
BRANCH  22  25
ATOM     25  O   UNL     1      29.258  73.549  17.480  1.00  0.00    -0.493 OA
ATOM     26  C   UNL     1      30.378  74.286  16.992  1.00  0.00     0.278 C 
ENDBRANCH  22  25
BRANCH  24  27
ATOM     27  O   UNL     1      27.909  71.287  18.368  1.00  0.00    -0.504 OA
ATOM     28  H   UNL     1      28.327  71.030  17.508  1.00  0.00     0.293 HD
ENDBRANCH  24  27
ENDBRANCH  18  19
ENDBRANCH   4  18
TORSDOF 8
ENDMDL
MODEL 7
REMARK VINA RESULT:    -6.821      3.292      6.029
REMARK INTER + INTRA:         -11.251
REMARK INTER:                  -9.526
REMARK INTRA:                  -1.725
REMARK UNBOUND:                -1.439
REMARK SMILES COc1cc(C[C@H]2C(=O)OC[C@@H]2Cc2ccc(OC)c(OC)c2)ccc1O
REMARK SMILES IDX 10 1 9 2 12 3 7 4 11 5 8 6 13 7 14 8 23 9 15 10 20 11 16 12
REMARK SMILES IDX 17 13 21 14 22 15 18 16 19 17 6 18 5 19 4 20 24 21 3 22
REMARK SMILES IDX 25 23 26 24 2 25 1 26 27 27
REMARK H PARENT 27 28
ROOT
ATOM      1  O   UNL     1      34.130  71.896  16.574  1.00  0.00    -0.465 OA
ATOM      2  O   UNL     1      34.444  70.344  18.229  1.00  0.00    -0.252 OA
ATOM      3  C   UNL     1      32.882  73.487  17.763  1.00  0.00     0.046 C 
ATOM      4  C   UNL     1      32.899  72.189  18.563  1.00  0.00     0.110 C 
ATOM      5  C   UNL     1      33.265  73.019  16.373  1.00  0.00     0.237 C 
ATOM      6  C   UNL     1      33.911  71.361  17.812  1.00  0.00     0.309 C 
ENDROOT
BRANCH   3   7
ATOM      7  C   UNL     1      33.907  74.486  18.306  1.00  0.00     0.043 C 
BRANCH   7   8
ATOM      8  C   UNL     1      33.324  75.357  19.390  1.00  0.00    -0.044 A 
ATOM      9  C   UNL     1      32.979  76.669  19.098  1.00  0.00     0.054 A 
ATOM     10  C   UNL     1      33.140  74.833  20.660  1.00  0.00     0.008 A 
ATOM     11  C   UNL     1      32.440  77.475  20.100  1.00  0.00     0.160 A 
ATOM     12  C   UNL     1      32.600  75.639  21.663  1.00  0.00     0.051 A 
ATOM     13  C   UNL     1      32.251  76.959  21.383  1.00  0.00     0.160 A 
BRANCH  11  14
ATOM     14  O   UNL     1      32.102  78.762  19.816  1.00  0.00    -0.493 OA
ATOM     15  C   UNL     1      31.047  78.963  18.878  1.00  0.00     0.278 C 
ENDBRANCH  11  14
BRANCH  13  16
ATOM     16  O   UNL     1      31.723  77.736  22.370  1.00  0.00    -0.493 OA
ATOM     17  C   UNL     1      30.347  77.534  22.689  1.00  0.00     0.278 C 
ENDBRANCH  13  16
ENDBRANCH   7   8
ENDBRANCH   3   7
BRANCH   4  18
ATOM     18  C   UNL     1      31.553  71.476  18.569  1.00  0.00     0.051 C 
BRANCH  18  19
ATOM     19  C   UNL     1      30.439  72.382  19.026  1.00  0.00    -0.043 A 
ATOM     20  C   UNL     1      30.388  72.782  20.354  1.00  0.00     0.054 A 
ATOM     21  C   UNL     1      29.482  72.800  18.113  1.00  0.00     0.008 A 
ATOM     22  C   UNL     1      29.356  73.620  20.777  1.00  0.00     0.160 A 
ATOM     23  C   UNL     1      28.450  73.637  18.538  1.00  0.00     0.050 A 
ATOM     24  C   UNL     1      28.388  74.048  19.868  1.00  0.00     0.157 A 
BRANCH  22  25
ATOM     25  O   UNL     1      29.306  74.015  22.080  1.00  0.00    -0.493 OA
ATOM     26  C   UNL     1      28.877  73.045  23.035  1.00  0.00     0.278 C 
ENDBRANCH  22  25
BRANCH  24  27
ATOM     27  O   UNL     1      27.376  74.867  20.271  1.00  0.00    -0.504 OA
ATOM     28  H   UNL     1      26.963  74.742  21.162  1.00  0.00     0.293 HD
ENDBRANCH  24  27
ENDBRANCH  18  19
ENDBRANCH   4  18
TORSDOF 8
ENDMDL
MODEL 8
REMARK VINA RESULT:    -6.767      3.480      5.911
REMARK INTER + INTRA:         -11.173
REMARK INTER:                  -9.274
REMARK INTRA:                  -1.899
REMARK UNBOUND:                -1.439
REMARK SMILES COc1cc(C[C@H]2C(=O)OC[C@@H]2Cc2ccc(OC)c(OC)c2)ccc1O
REMARK SMILES IDX 10 1 9 2 12 3 7 4 11 5 8 6 13 7 14 8 23 9 15 10 20 11 16 12
REMARK SMILES IDX 17 13 21 14 22 15 18 16 19 17 6 18 5 19 4 20 24 21 3 22
REMARK SMILES IDX 25 23 26 24 2 25 1 26 27 27
REMARK H PARENT 27 28
ROOT
ATOM      1  O   UNL     1      33.792  72.169  16.278  1.00  0.00    -0.465 OA
ATOM      2  O   UNL     1      34.395  71.081  18.202  1.00  0.00    -0.252 OA
ATOM      3  C   UNL     1      32.291  73.735  17.172  1.00  0.00     0.046 C 
ATOM      4  C   UNL     1      32.548  72.659  18.221  1.00  0.00     0.110 C 
ATOM      5  C   UNL     1      32.738  73.057  15.891  1.00  0.00     0.237 C 
ATOM      6  C   UNL     1      33.685  71.879  17.610  1.00  0.00     0.309 C 
ENDROOT
BRANCH   3   7
ATOM      7  C   UNL     1      33.125  74.988  17.447  1.00  0.00     0.043 C 
BRANCH   7   8
ATOM      8  C   UNL     1      32.392  75.969  18.326  1.00  0.00    -0.044 A 
ATOM      9  C   UNL     1      33.117  76.851  19.115  1.00  0.00     0.054 A 
ATOM     10  C   UNL     1      31.006  75.975  18.333  1.00  0.00     0.008 A 
ATOM     11  C   UNL     1      32.440  77.758  19.930  1.00  0.00     0.160 A 
ATOM     12  C   UNL     1      30.328  76.884  19.147  1.00  0.00     0.051 A 
ATOM     13  C   UNL     1      31.044  77.773  19.945  1.00  0.00     0.160 A 
BRANCH  11  14
ATOM     14  O   UNL     1      33.150  78.624  20.705  1.00  0.00    -0.493 OA
ATOM     15  C   UNL     1      34.457  78.972  20.256  1.00  0.00     0.278 C 
ENDBRANCH  11  14
BRANCH  13  16
ATOM     16  O   UNL     1      30.371  78.657  20.734  1.00  0.00    -0.493 OA
ATOM     17  C   UNL     1      29.991  78.207  22.033  1.00  0.00     0.278 C 
ENDBRANCH  13  16
ENDBRANCH   7   8
ENDBRANCH   3   7
BRANCH   4  18
ATOM     18  C   UNL     1      31.352  71.741  18.438  1.00  0.00     0.051 C 
BRANCH  18  19
ATOM     19  C   UNL     1      30.572  72.116  19.672  1.00  0.00    -0.043 A 
ATOM     20  C   UNL     1      30.989  73.193  20.441  1.00  0.00     0.054 A 
ATOM     21  C   UNL     1      29.450  71.378  20.019  1.00  0.00     0.008 A 
ATOM     22  C   UNL     1      30.267  73.540  21.583  1.00  0.00     0.160 A 
ATOM     23  C   UNL     1      28.729  71.725  21.162  1.00  0.00     0.050 A 
ATOM     24  C   UNL     1      29.137  72.805  21.943  1.00  0.00     0.157 A 
BRANCH  22  25
ATOM     25  O   UNL     1      30.676  74.597  22.338  1.00  0.00    -0.493 OA
ATOM     26  C   UNL     1      32.036  75.004  22.201  1.00  0.00     0.278 C 
ENDBRANCH  22  25
BRANCH  24  27
ATOM     27  O   UNL     1      28.424  73.136  23.056  1.00  0.00    -0.504 OA
ATOM     28  H   UNL     1      27.460  73.347  22.981  1.00  0.00     0.293 HD
ENDBRANCH  24  27
ENDBRANCH  18  19
ENDBRANCH   4  18
TORSDOF 8
ENDMDL
MODEL 9
REMARK VINA RESULT:    -6.740      2.178      7.241
REMARK INTER + INTRA:         -11.134
REMARK INTER:                  -9.995
REMARK INTRA:                  -1.139
REMARK UNBOUND:                -1.439
REMARK SMILES COc1cc(C[C@H]2C(=O)OC[C@@H]2Cc2ccc(OC)c(OC)c2)ccc1O
REMARK SMILES IDX 10 1 9 2 12 3 7 4 11 5 8 6 13 7 14 8 23 9 15 10 20 11 16 12
REMARK SMILES IDX 17 13 21 14 22 15 18 16 19 17 6 18 5 19 4 20 24 21 3 22
REMARK SMILES IDX 25 23 26 24 2 25 1 26 27 27
REMARK H PARENT 27 28
ROOT
ATOM      1  O   UNL     1      33.301  76.858  22.729  1.00  0.00    -0.465 OA
ATOM      2  O   UNL     1      33.207  78.912  21.717  1.00  0.00    -0.252 OA
ATOM      3  C   UNL     1      31.861  75.662  21.317  1.00  0.00     0.046 C 
ATOM      4  C   UNL     1      31.671  77.151  21.051  1.00  0.00     0.110 C 
ATOM      5  C   UNL     1      32.529  75.654  22.678  1.00  0.00     0.237 C 
ATOM      6  C   UNL     1      32.803  77.765  21.835  1.00  0.00     0.309 C 
ENDROOT
BRANCH   3   7
ATOM      7  C   UNL     1      32.765  75.021  20.261  1.00  0.00     0.043 C 
BRANCH   7   8
ATOM      8  C   UNL     1      32.163  73.760  19.695  1.00  0.00    -0.044 A 
ATOM      9  C   UNL     1      30.983  73.267  20.234  1.00  0.00     0.054 A 
ATOM     10  C   UNL     1      32.797  73.113  18.646  1.00  0.00     0.008 A 
ATOM     11  C   UNL     1      30.426  72.100  19.712  1.00  0.00     0.160 A 
ATOM     12  C   UNL     1      32.239  71.946  18.122  1.00  0.00     0.051 A 
ATOM     13  C   UNL     1      31.055  71.440  18.656  1.00  0.00     0.160 A 
BRANCH  11  14
ATOM     14  O   UNL     1      29.268  71.615  20.239  1.00  0.00    -0.493 OA
ATOM     15  C   UNL     1      28.050  72.164  19.743  1.00  0.00     0.278 C 
ENDBRANCH  11  14
BRANCH  13  16
ATOM     16  O   UNL     1      30.519  70.301  18.135  1.00  0.00    -0.493 OA
ATOM     17  C   UNL     1      29.871  70.407  16.869  1.00  0.00     0.278 C 
ENDBRANCH  13  16
ENDBRANCH   7   8
ENDBRANCH   3   7
BRANCH   4  18
ATOM     18  C   UNL     1      30.340  77.682  21.567  1.00  0.00     0.051 C 
BRANCH  18  19
ATOM     19  C   UNL     1      29.719  78.669  20.611  1.00  0.00    -0.043 A 
ATOM     20  C   UNL     1      30.451  79.111  19.519  1.00  0.00     0.054 A 
ATOM     21  C   UNL     1      28.428  79.119  20.841  1.00  0.00     0.008 A 
ATOM     22  C   UNL     1      29.877  80.024  18.635  1.00  0.00     0.160 A 
ATOM     23  C   UNL     1      27.855  80.033  19.956  1.00  0.00     0.050 A 
ATOM     24  C   UNL     1      28.578  80.485  18.854  1.00  0.00     0.157 A 
BRANCH  22  25
ATOM     25  O   UNL     1      30.594  80.459  17.561  1.00  0.00    -0.493 OA
ATOM     26  C   UNL     1      31.605  81.434  17.808  1.00  0.00     0.278 C 
ENDBRANCH  22  25
BRANCH  24  27
ATOM     27  O   UNL     1      28.007  81.377  17.996  1.00  0.00    -0.504 OA
ATOM     28  H   UNL     1      27.516  82.160  18.352  1.00  0.00     0.293 HD
ENDBRANCH  24  27
ENDBRANCH  18  19
ENDBRANCH   4  18
TORSDOF 8
ENDMDL
