MODEL 1
REMARK VINA RESULT:    -6.279      0.000      0.000
REMARK INTER + INTRA:         -12.710
REMARK INTER:                 -11.051
REMARK INTRA:                  -1.659
REMARK UNBOUND:                -1.659
REMARK SMILES O=C(CCCc1ccc(N(CCCl)CCCl)cc1)OCCN1C(=O)C=CC1=O
REMARK SMILES IDX 4 1 5 2 6 3 9 4 8 5 17 6 7 7 18 8 10 9 11 10 12 11 13 12
REMARK SMILES IDX 14 13 15 14 16 15 3 16 2 17 1 18 19 19 20 20 21 21 22 22
REMARK SMILES IDX 23 23 27 24 24 25 25 26 28 27 26 28
REMARK H PARENT
ROOT
ATOM      1  C   UNL     1      32.247  77.398  22.331  1.00  0.00     0.016 C 
ENDROOT
BRANCH   1   2
ATOM      2  C   UNL     1      32.454  75.926  22.716  1.00  0.00     0.036 C 
BRANCH   2   3
ATOM      3  C   UNL     1      31.958  74.936  21.694  1.00  0.00    -0.048 A 
ATOM      4  C   UNL     1      31.040  73.102  19.802  1.00  0.00     0.037 A 
ATOM      5  C   UNL     1      30.391  73.221  21.030  1.00  0.00     0.026 A 
ATOM      6  C   UNL     1      32.149  73.900  19.519  1.00  0.00     0.026 A 
ATOM      7  C   UNL     1      30.850  74.138  21.977  1.00  0.00     0.006 A 
ATOM      8  C   UNL     1      32.608  74.817  20.465  1.00  0.00     0.006 A 
BRANCH   4   9
ATOM      9  N   UNL     1      30.575  72.175  18.845  1.00  0.00    -0.369 N 
BRANCH   9  10
ATOM     10  C   UNL     1      29.999  72.636  17.597  1.00  0.00     0.132 C 
BRANCH  10  11
ATOM     11  C   UNL     1      28.783  73.513  17.848  1.00  0.00     0.131 C 
ATOM     12  Cl  UNL     1      27.628  72.724  18.949  1.00  0.00    -0.125 Cl
ENDBRANCH  10  11
ENDBRANCH   9  10
BRANCH   9  13
ATOM     13  C   UNL     1      30.680  70.751  19.092  1.00  0.00     0.132 C 
BRANCH  13  14
ATOM     14  C   UNL     1      31.533  70.075  18.030  1.00  0.00     0.131 C 
ATOM     15  Cl  UNL     1      33.158  70.799  17.944  1.00  0.00    -0.125 Cl
ENDBRANCH  13  14
ENDBRANCH   9  13
ENDBRANCH   4   9
ENDBRANCH   2   3
ENDBRANCH   1   2
BRANCH   1  16
ATOM     16  C   UNL     1      30.819  77.903  22.551  1.00  0.00     0.123 C 
BRANCH  16  17
ATOM     17  C   UNL     1      29.954  77.783  21.318  1.00  0.00     0.305 C 
ATOM     18  O   UNL     1      28.776  77.448  21.328  1.00  0.00    -0.252 OA
BRANCH  17  19
ATOM     19  O   UNL     1      30.677  78.133  20.215  1.00  0.00    -0.464 OA
BRANCH  19  20
ATOM     20  C   UNL     1      29.931  78.243  18.998  1.00  0.00     0.255 C 
BRANCH  20  21
ATOM     21  C   UNL     1      29.496  79.683  18.802  1.00  0.00     0.171 C 
BRANCH  21  22
ATOM     22  N   UNL     1      28.135  79.765  18.343  1.00  0.00    -0.272 N 
ATOM     23  C   UNL     1      27.036  79.898  19.159  1.00  0.00     0.253 C 
ATOM     24  C   UNL     1      27.746  79.723  17.025  1.00  0.00     0.253 C 
ATOM     25  O   UNL     1      26.980  79.967  20.375  1.00  0.00    -0.269 OA
ATOM     26  C   UNL     1      25.860  79.945  18.276  1.00  0.00     0.077 C 
ATOM     27  O   UNL     1      28.426  79.609  16.018  1.00  0.00    -0.269 OA
ATOM     28  C   UNL     1      26.280  79.841  17.014  1.00  0.00     0.077 C 
ENDBRANCH  21  22
ENDBRANCH  20  21
ENDBRANCH  19  20
ENDBRANCH  17  19
ENDBRANCH  16  17
ENDBRANCH   1  16
TORSDOF 13
ENDMDL
MODEL 2
REMARK VINA RESULT:    -6.218      5.289      8.705
REMARK INTER + INTRA:         -12.603
REMARK INTER:                 -10.801
REMARK INTRA:                  -1.802
REMARK UNBOUND:                -1.659
REMARK SMILES O=C(CCCc1ccc(N(CCCl)CCCl)cc1)OCCN1C(=O)C=CC1=O
REMARK SMILES IDX 4 1 5 2 6 3 9 4 8 5 17 6 7 7 18 8 10 9 11 10 12 11 13 12
REMARK SMILES IDX 14 13 15 14 16 15 3 16 2 17 1 18 19 19 20 20 21 21 22 22
REMARK SMILES IDX 23 23 27 24 24 25 25 26 28 27 26 28
REMARK H PARENT
ROOT
ATOM      1  C   UNL     1      32.505  71.680  16.722  1.00  0.00     0.016 C 
ENDROOT
BRANCH   1   2
ATOM      2  C   UNL     1      31.624  71.382  17.944  1.00  0.00     0.036 C 
BRANCH   2   3
ATOM      3  C   UNL     1      31.642  72.451  19.006  1.00  0.00    -0.048 A 
ATOM      4  C   UNL     1      31.676  74.431  20.971  1.00  0.00     0.037 A 
ATOM      5  C   UNL     1      30.718  73.418  21.018  1.00  0.00     0.026 A 
ATOM      6  C   UNL     1      32.617  74.454  19.942  1.00  0.00     0.026 A 
ATOM      7  C   UNL     1      30.701  72.428  20.035  1.00  0.00     0.006 A 
ATOM      8  C   UNL     1      32.600  73.464  18.959  1.00  0.00     0.006 A 
BRANCH   4   9
ATOM      9  N   UNL     1      31.692  75.431  21.966  1.00  0.00    -0.369 N 
BRANCH   9  10
ATOM     10  C   UNL     1      32.944  75.839  22.575  1.00  0.00     0.132 C 
BRANCH  10  11
ATOM     11  C   UNL     1      33.138  77.343  22.467  1.00  0.00     0.131 C 
ATOM     12  Cl  UNL     1      33.325  77.855  20.772  1.00  0.00    -0.125 Cl
ENDBRANCH  10  11
ENDBRANCH   9  10
BRANCH   9  13
ATOM     13  C   UNL     1      30.462  76.073  22.382  1.00  0.00     0.132 C 
BRANCH  13  14
ATOM     14  C   UNL     1      29.726  76.666  21.190  1.00  0.00     0.131 C 
ATOM     15  Cl  UNL     1      28.107  75.947  21.004  1.00  0.00    -0.125 Cl
ENDBRANCH  13  14
ENDBRANCH   9  13
ENDBRANCH   4   9
ENDBRANCH   2   3
ENDBRANCH   1   2
BRANCH   1  16
ATOM     16  C   UNL     1      33.605  70.644  16.482  1.00  0.00     0.123 C 
BRANCH  16  17
ATOM     17  C   UNL     1      33.717  70.225  15.035  1.00  0.00     0.305 C 
ATOM     18  O   UNL     1      33.699  71.000  14.086  1.00  0.00    -0.252 OA
BRANCH  17  19
ATOM     19  O   UNL     1      33.871  68.872  14.958  1.00  0.00    -0.464 OA
BRANCH  19  20
ATOM     20  C   UNL     1      33.090  68.109  15.884  1.00  0.00     0.255 C 
BRANCH  20  21
ATOM     21  C   UNL     1      31.846  67.590  15.187  1.00  0.00     0.171 C 
BRANCH  21  22
ATOM     22  N   UNL     1      30.744  68.504  15.324  1.00  0.00    -0.272 N 
ATOM     23  C   UNL     1      29.965  68.634  16.450  1.00  0.00     0.253 C 
ATOM     24  C   UNL     1      30.318  69.374  14.349  1.00  0.00     0.253 C 
ATOM     25  O   UNL     1      30.034  68.036  17.510  1.00  0.00    -0.269 OA
ATOM     26  C   UNL     1      28.968  69.675  16.155  1.00  0.00     0.077 C 
ATOM     27  O   UNL     1      30.751  69.549  13.222  1.00  0.00    -0.269 OA
ATOM     28  C   UNL     1      29.177  70.113  14.912  1.00  0.00     0.077 C 
ENDBRANCH  21  22
ENDBRANCH  20  21
ENDBRANCH  19  20
ENDBRANCH  17  19
ENDBRANCH  16  17
ENDBRANCH   1  16
TORSDOF 13
ENDMDL
MODEL 3
REMARK VINA RESULT:    -6.159      1.941      2.958
REMARK INTER + INTRA:         -12.499
REMARK INTER:                 -10.982
REMARK INTRA:                  -1.517
REMARK UNBOUND:                -1.659
REMARK SMILES O=C(CCCc1ccc(N(CCCl)CCCl)cc1)OCCN1C(=O)C=CC1=O
REMARK SMILES IDX 4 1 5 2 6 3 9 4 8 5 17 6 7 7 18 8 10 9 11 10 12 11 13 12
REMARK SMILES IDX 14 13 15 14 16 15 3 16 2 17 1 18 19 19 20 20 21 21 22 22
REMARK SMILES IDX 23 23 27 24 24 25 25 26 28 27 26 28
REMARK H PARENT
ROOT
ATOM      1  C   UNL     1      32.068  75.603  22.662  1.00  0.00     0.016 C 
ENDROOT
BRANCH   1   2
ATOM      2  C   UNL     1      30.734  74.843  22.638  1.00  0.00     0.036 C 
BRANCH   2   3
ATOM      3  C   UNL     1      30.610  73.828  21.530  1.00  0.00    -0.048 A 
ATOM      4  C   UNL     1      30.380  71.949  19.481  1.00  0.00     0.037 A 
ATOM      5  C   UNL     1      31.417  72.881  19.459  1.00  0.00     0.026 A 
ATOM      6  C   UNL     1      29.458  71.956  20.528  1.00  0.00     0.026 A 
ATOM      7  C   UNL     1      31.532  73.822  20.484  1.00  0.00     0.006 A 
ATOM      8  C   UNL     1      29.572  72.895  21.553  1.00  0.00     0.006 A 
BRANCH   4   9
ATOM      9  N   UNL     1      30.265  70.999  18.445  1.00  0.00    -0.369 N 
BRANCH   9  10
ATOM     10  C   UNL     1      29.148  71.054  17.521  1.00  0.00     0.132 C 
BRANCH  10  11
ATOM     11  C   UNL     1      29.606  71.486  16.137  1.00  0.00     0.131 C 
ATOM     12  Cl  UNL     1      28.980  70.397  14.875  1.00  0.00    -0.125 Cl
ENDBRANCH  10  11
ENDBRANCH   9  10
BRANCH   9  13
ATOM     13  C   UNL     1      31.267  69.966  18.280  1.00  0.00     0.132 C 
BRANCH  13  14
ATOM     14  C   UNL     1      30.624  68.590  18.201  1.00  0.00     0.131 C 
ATOM     15  Cl  UNL     1      30.830  67.868  16.586  1.00  0.00    -0.125 Cl
ENDBRANCH  13  14
ENDBRANCH   9  13
ENDBRANCH   4   9
ENDBRANCH   2   3
ENDBRANCH   1   2
BRANCH   1  16
ATOM     16  C   UNL     1      31.915  77.126  22.659  1.00  0.00     0.123 C 
BRANCH  16  17
ATOM     17  C   UNL     1      32.714  77.798  21.567  1.00  0.00     0.305 C 
ATOM     18  O   UNL     1      33.449  78.762  21.740  1.00  0.00    -0.252 OA
BRANCH  17  19
ATOM     19  O   UNL     1      32.513  77.148  20.384  1.00  0.00    -0.464 OA
BRANCH  19  20
ATOM     20  C   UNL     1      31.792  77.883  19.391  1.00  0.00     0.255 C 
BRANCH  20  21
ATOM     21  C   UNL     1      30.367  77.367  19.316  1.00  0.00     0.171 C 
BRANCH  21  22
ATOM     22  N   UNL     1      29.412  78.424  19.510  1.00  0.00    -0.272 N 
ATOM     23  C   UNL     1      29.034  79.331  18.547  1.00  0.00     0.253 C 
ATOM     24  C   UNL     1      28.743  78.674  20.685  1.00  0.00     0.253 C 
ATOM     25  O   UNL     1      29.409  79.431  17.391  1.00  0.00    -0.269 OA
ATOM     26  C   UNL     1      28.045  80.222  19.172  1.00  0.00     0.077 C 
ATOM     27  O   UNL     1      28.811  78.093  21.755  1.00  0.00    -0.269 OA
ATOM     28  C   UNL     1      27.872  79.833  20.436  1.00  0.00     0.077 C 
ENDBRANCH  21  22
ENDBRANCH  20  21
ENDBRANCH  19  20
ENDBRANCH  17  19
ENDBRANCH  16  17
ENDBRANCH   1  16
TORSDOF 13
ENDMDL
MODEL 4
REMARK VINA RESULT:    -6.152      1.803      2.514
REMARK INTER + INTRA:         -12.486
REMARK INTER:                 -10.986
REMARK INTRA:                  -1.500
REMARK UNBOUND:                -1.659
REMARK SMILES O=C(CCCc1ccc(N(CCCl)CCCl)cc1)OCCN1C(=O)C=CC1=O
REMARK SMILES IDX 4 1 5 2 6 3 9 4 8 5 17 6 7 7 18 8 10 9 11 10 12 11 13 12
REMARK SMILES IDX 14 13 15 14 16 15 3 16 2 17 1 18 19 19 20 20 21 21 22 22
REMARK SMILES IDX 23 23 27 24 24 25 25 26 28 27 26 28
REMARK H PARENT
ROOT
ATOM      1  C   UNL     1      31.144  76.385  22.333  1.00  0.00     0.016 C 
ENDROOT
BRANCH   1   2
ATOM      2  C   UNL     1      30.712  74.983  22.788  1.00  0.00     0.036 C 
BRANCH   2   3
ATOM      3  C   UNL     1      30.573  73.978  21.674  1.00  0.00    -0.048 A 
ATOM      4  C   UNL     1      30.316  72.117  19.611  1.00  0.00     0.037 A 
ATOM      5  C   UNL     1      29.432  72.089  20.689  1.00  0.00     0.026 A 
ATOM      6  C   UNL     1      31.329  73.074  19.564  1.00  0.00     0.026 A 
ATOM      7  C   UNL     1      29.560  73.020  21.721  1.00  0.00     0.006 A 
ATOM      8  C   UNL     1      31.458  74.005  20.595  1.00  0.00     0.006 A 
BRANCH   4   9
ATOM      9  N   UNL     1      30.185  71.175  18.569  1.00  0.00    -0.369 N 
BRANCH   9  10
ATOM     10  C   UNL     1      29.340  71.460  17.425  1.00  0.00     0.132 C 
BRANCH  10  11
ATOM     11  C   UNL     1      30.174  71.797  16.201  1.00  0.00     0.131 C 
ATOM     12  Cl  UNL     1      29.376  71.263  14.702  1.00  0.00    -0.125 Cl
ENDBRANCH  10  11
ENDBRANCH   9  10
BRANCH   9  13
ATOM     13  C   UNL     1      30.904  69.918  18.620  1.00  0.00     0.132 C 
BRANCH  13  14
ATOM     14  C   UNL     1      29.998  68.756  18.242  1.00  0.00     0.131 C 
ATOM     15  Cl  UNL     1      30.467  68.049  16.676  1.00  0.00    -0.125 Cl
ENDBRANCH  13  14
ENDBRANCH   9  13
ENDBRANCH   4   9
ENDBRANCH   2   3
ENDBRANCH   1   2
BRANCH   1  16
ATOM     16  C   UNL     1      30.028  77.431  22.402  1.00  0.00     0.123 C 
BRANCH  16  17
ATOM     17  C   UNL     1      29.385  77.697  21.061  1.00  0.00     0.305 C 
ATOM     18  O   UNL     1      29.476  76.957  20.090  1.00  0.00    -0.252 OA
BRANCH  17  19
ATOM     19  O   UNL     1      28.673  78.860  21.116  1.00  0.00    -0.464 OA
BRANCH  19  20
ATOM     20  C   UNL     1      27.749  79.069  20.043  1.00  0.00     0.255 C 
BRANCH  20  21
ATOM     21  C   UNL     1      28.176  80.282  19.238  1.00  0.00     0.171 C 
BRANCH  21  22
ATOM     22  N   UNL     1      28.922  79.903  18.068  1.00  0.00    -0.272 N 
ATOM     23  C   UNL     1      28.373  79.646  16.833  1.00  0.00     0.253 C 
ATOM     24  C   UNL     1      30.287  79.744  18.023  1.00  0.00     0.253 C 
ATOM     25  O   UNL     1      27.205  79.679  16.485  1.00  0.00    -0.269 OA
ATOM     26  C   UNL     1      29.489  79.301  15.940  1.00  0.00     0.077 C 
ATOM     27  O   UNL     1      31.113  79.879  18.911  1.00  0.00    -0.269 OA
ATOM     28  C   UNL     1      30.621  79.359  16.643  1.00  0.00     0.077 C 
ENDBRANCH  21  22
ENDBRANCH  20  21
ENDBRANCH  19  20
ENDBRANCH  17  19
ENDBRANCH  16  17
ENDBRANCH   1  16
TORSDOF 13
ENDMDL
MODEL 5
REMARK VINA RESULT:    -6.129      4.732      8.260
REMARK INTER + INTRA:         -12.446
REMARK INTER:                 -10.764
REMARK INTRA:                  -1.682
REMARK UNBOUND:                -1.659
REMARK SMILES O=C(CCCc1ccc(N(CCCl)CCCl)cc1)OCCN1C(=O)C=CC1=O
REMARK SMILES IDX 4 1 5 2 6 3 9 4 8 5 17 6 7 7 18 8 10 9 11 10 12 11 13 12
REMARK SMILES IDX 14 13 15 14 16 15 3 16 2 17 1 18 19 19 20 20 21 21 22 22
REMARK SMILES IDX 23 23 27 24 24 25 25 26 28 27 26 28
REMARK H PARENT
ROOT
ATOM      1  C   UNL     1      31.042  71.744  18.325  1.00  0.00     0.016 C 
ENDROOT
BRANCH   1   2
ATOM      2  C   UNL     1      30.347  71.928  19.683  1.00  0.00     0.036 C 
BRANCH   2   3
ATOM      3  C   UNL     1      30.707  73.202  20.403  1.00  0.00    -0.048 A 
ATOM      4  C   UNL     1      31.371  75.560  21.738  1.00  0.00     0.037 A 
ATOM      5  C   UNL     1      31.821  75.346  20.435  1.00  0.00     0.026 A 
ATOM      6  C   UNL     1      30.589  74.596  22.373  1.00  0.00     0.026 A 
ATOM      7  C   UNL     1      31.488  74.166  19.768  1.00  0.00     0.006 A 
ATOM      8  C   UNL     1      30.257  73.416  21.707  1.00  0.00     0.006 A 
BRANCH   4   9
ATOM      9  N   UNL     1      31.707  76.753  22.412  1.00  0.00    -0.369 N 
BRANCH   9  10
ATOM     10  C   UNL     1      33.093  77.167  22.521  1.00  0.00     0.132 C 
BRANCH  10  11
ATOM     11  C   UNL     1      33.331  78.475  21.784  1.00  0.00     0.131 C 
ATOM     12  Cl  UNL     1      34.007  78.194  20.161  1.00  0.00    -0.125 Cl
ENDBRANCH  10  11
ENDBRANCH   9  10
BRANCH   9  13
ATOM     13  C   UNL     1      30.673  77.586  22.991  1.00  0.00     0.132 C 
BRANCH  13  14
ATOM     14  C   UNL     1      29.540  77.815  22.003  1.00  0.00     0.131 C 
ATOM     15  Cl  UNL     1      30.037  78.905  20.685  1.00  0.00    -0.125 Cl
ENDBRANCH  13  14
ENDBRANCH   9  13
ENDBRANCH   4   9
ENDBRANCH   2   3
ENDBRANCH   1   2
BRANCH   1  16
ATOM     16  C   UNL     1      32.220  70.768  18.359  1.00  0.00     0.123 C 
BRANCH  16  17
ATOM     17  C   UNL     1      33.497  71.365  17.813  1.00  0.00     0.305 C 
ATOM     18  O   UNL     1      34.098  72.300  18.327  1.00  0.00    -0.252 OA
BRANCH  17  19
ATOM     19  O   UNL     1      33.880  70.686  16.694  1.00  0.00    -0.464 OA
BRANCH  19  20
ATOM     20  C   UNL     1      33.336  71.170  15.462  1.00  0.00     0.255 C 
BRANCH  20  21
ATOM     21  C   UNL     1      32.694  70.020  14.707  1.00  0.00     0.171 C 
BRANCH  21  22
ATOM     22  N   UNL     1      31.296  69.898  15.023  1.00  0.00    -0.272 N 
ATOM     23  C   UNL     1      30.324  70.800  14.658  1.00  0.00     0.253 C 
ATOM     24  C   UNL     1      30.738  68.860  15.732  1.00  0.00     0.253 C 
ATOM     25  O   UNL     1      30.433  71.839  14.029  1.00  0.00    -0.269 OA
ATOM     26  C   UNL     1      29.051  70.283  15.181  1.00  0.00     0.077 C 
ATOM     27  O   UNL     1      31.273  67.880  16.223  1.00  0.00    -0.269 OA
ATOM     28  C   UNL     1      29.295  69.135  15.816  1.00  0.00     0.077 C 
ENDBRANCH  21  22
ENDBRANCH  20  21
ENDBRANCH  19  20
ENDBRANCH  17  19
ENDBRANCH  16  17
ENDBRANCH   1  16
TORSDOF 13
ENDMDL
MODEL 6
REMARK VINA RESULT:    -6.075      2.430      3.938
REMARK INTER + INTRA:         -12.351
REMARK INTER:                 -10.460
REMARK INTRA:                  -1.890
REMARK UNBOUND:                -1.659
REMARK SMILES O=C(CCCc1ccc(N(CCCl)CCCl)cc1)OCCN1C(=O)C=CC1=O
REMARK SMILES IDX 4 1 5 2 6 3 9 4 8 5 17 6 7 7 18 8 10 9 11 10 12 11 13 12
REMARK SMILES IDX 14 13 15 14 16 15 3 16 2 17 1 18 19 19 20 20 21 21 22 22
REMARK SMILES IDX 23 23 27 24 24 25 25 26 28 27 26 28
REMARK H PARENT
ROOT
ATOM      1  C   UNL     1      31.286  76.292  22.365  1.00  0.00     0.016 C 
ENDROOT
BRANCH   1   2
ATOM      2  C   UNL     1      30.777  74.892  22.739  1.00  0.00     0.036 C 
BRANCH   2   3
ATOM      3  C   UNL     1      30.687  73.928  21.584  1.00  0.00    -0.048 A 
ATOM      4  C   UNL     1      30.519  72.144  19.446  1.00  0.00     0.037 A 
ATOM      5  C   UNL     1      31.509  73.126  19.458  1.00  0.00     0.026 A 
ATOM      6  C   UNL     1      29.614  72.053  20.503  1.00  0.00     0.026 A 
ATOM      7  C   UNL     1      31.593  74.019  20.527  1.00  0.00     0.006 A 
ATOM      8  C   UNL     1      29.697  72.945  21.572  1.00  0.00     0.006 A 
BRANCH   4   9
ATOM      9  N   UNL     1      30.435  71.242  18.365  1.00  0.00    -0.369 N 
BRANCH   9  10
ATOM     10  C   UNL     1      31.394  70.161  18.234  1.00  0.00     0.132 C 
BRANCH  10  11
ATOM     11  C   UNL     1      30.691  68.827  18.051  1.00  0.00     0.131 C 
ATOM     12  Cl  UNL     1      31.065  67.706  19.383  1.00  0.00    -0.125 Cl
ENDBRANCH  10  11
ENDBRANCH   9  10
BRANCH   9  13
ATOM     13  C   UNL     1      29.383  71.374  17.378  1.00  0.00     0.132 C 
BRANCH  13  14
ATOM     14  C   UNL     1      29.943  71.833  16.040  1.00  0.00     0.131 C 
ATOM     15  Cl  UNL     1      29.585  70.660  14.749  1.00  0.00    -0.125 Cl
ENDBRANCH  13  14
ENDBRANCH   9  13
ENDBRANCH   4   9
ENDBRANCH   2   3
ENDBRANCH   1   2
BRANCH   1  16
ATOM     16  C   UNL     1      30.282  77.412  22.645  1.00  0.00     0.123 C 
BRANCH  16  17
ATOM     17  C   UNL     1      29.248  77.565  21.554  1.00  0.00     0.305 C 
ATOM     18  O   UNL     1      28.412  76.717  21.268  1.00  0.00    -0.252 OA
BRANCH  17  19
ATOM     19  O   UNL     1      29.374  78.792  20.971  1.00  0.00    -0.464 OA
BRANCH  19  20
ATOM     20  C   UNL     1      29.479  78.789  19.543  1.00  0.00     0.255 C 
BRANCH  20  21
ATOM     21  C   UNL     1      30.764  79.482  19.130  1.00  0.00     0.171 C 
BRANCH  21  22
ATOM     22  N   UNL     1      31.917  78.676  19.427  1.00  0.00    -0.272 N 
ATOM     23  C   UNL     1      32.871  78.982  20.371  1.00  0.00     0.253 C 
ATOM     24  C   UNL     1      32.227  77.487  18.809  1.00  0.00     0.253 C 
ATOM     25  O   UNL     1      32.941  79.948  21.112  1.00  0.00    -0.269 OA
ATOM     26  C   UNL     1      33.858  77.892  20.342  1.00  0.00     0.077 C 
ATOM     27  O   UNL     1      31.630  76.894  17.925  1.00  0.00    -0.269 OA
ATOM     28  C   UNL     1      33.477  77.008  19.418  1.00  0.00     0.077 C 
ENDBRANCH  21  22
ENDBRANCH  20  21
ENDBRANCH  19  20
ENDBRANCH  17  19
ENDBRANCH  16  17
ENDBRANCH   1  16
TORSDOF 13
ENDMDL
MODEL 7
REMARK VINA RESULT:    -6.069      4.786      8.947
REMARK INTER + INTRA:         -12.341
REMARK INTER:                 -10.290
REMARK INTRA:                  -2.051
REMARK UNBOUND:                -1.659
REMARK SMILES O=C(CCCc1ccc(N(CCCl)CCCl)cc1)OCCN1C(=O)C=CC1=O
REMARK SMILES IDX 4 1 5 2 6 3 9 4 8 5 17 6 7 7 18 8 10 9 11 10 12 11 13 12
REMARK SMILES IDX 14 13 15 14 16 15 3 16 2 17 1 18 19 19 20 20 21 21 22 22
REMARK SMILES IDX 23 23 27 24 24 25 25 26 28 27 26 28
REMARK H PARENT
ROOT
ATOM      1  C   UNL     1      28.780  70.826  17.977  1.00  0.00     0.016 C 
ENDROOT
BRANCH   1   2
ATOM      2  C   UNL     1      30.067  70.566  18.773  1.00  0.00     0.036 C 
BRANCH   2   3
ATOM      3  C   UNL     1      30.757  71.809  19.274  1.00  0.00    -0.048 A 
ATOM      4  C   UNL     1      32.033  74.110  20.200  1.00  0.00     0.037 A 
ATOM      5  C   UNL     1      32.541  73.428  19.095  1.00  0.00     0.026 A 
ATOM      6  C   UNL     1      30.887  73.642  20.842  1.00  0.00     0.026 A 
ATOM      7  C   UNL     1      31.903  72.277  18.632  1.00  0.00     0.006 A 
ATOM      8  C   UNL     1      30.248  72.492  20.380  1.00  0.00     0.006 A 
BRANCH   4   9
ATOM      9  N   UNL     1      32.679  75.274  20.668  1.00  0.00    -0.369 N 
BRANCH   9  10
ATOM     10  C   UNL     1      33.058  76.324  19.742  1.00  0.00     0.132 C 
BRANCH  10  11
ATOM     11  C   UNL     1      31.841  76.882  19.023  1.00  0.00     0.131 C 
ATOM     12  Cl  UNL     1      31.912  76.557  17.274  1.00  0.00    -0.125 Cl
ENDBRANCH  10  11
ENDBRANCH   9  10
BRANCH   9  13
ATOM     13  C   UNL     1      32.960  75.441  22.079  1.00  0.00     0.132 C 
BRANCH  13  14
ATOM     14  C   UNL     1      32.482  76.798  22.574  1.00  0.00     0.131 C 
ATOM     15  Cl  UNL     1      30.705  76.908  22.552  1.00  0.00    -0.125 Cl
ENDBRANCH  13  14
ENDBRANCH   9  13
ENDBRANCH   4   9
ENDBRANCH   2   3
ENDBRANCH   1   2
BRANCH   1  16
ATOM     16  C   UNL     1      28.601  69.903  16.769  1.00  0.00     0.123 C 
BRANCH  16  17
ATOM     17  C   UNL     1      29.177  70.479  15.496  1.00  0.00     0.305 C 
ATOM     18  O   UNL     1      29.466  71.659  15.338  1.00  0.00    -0.252 OA
BRANCH  17  19
ATOM     19  O   UNL     1      29.350  69.483  14.579  1.00  0.00    -0.464 OA
BRANCH  19  20
ATOM     20  C   UNL     1      29.484  68.165  15.118  1.00  0.00     0.255 C 
BRANCH  20  21
ATOM     21  C   UNL     1      30.884  67.647  14.845  1.00  0.00     0.171 C 
BRANCH  21  22
ATOM     22  N   UNL     1      31.862  68.316  15.659  1.00  0.00    -0.272 N 
ATOM     23  C   UNL     1      32.687  69.329  15.226  1.00  0.00     0.253 C 
ATOM     24  C   UNL     1      32.108  68.037  16.983  1.00  0.00     0.253 C 
ATOM     25  O   UNL     1      32.765  69.844  14.124  1.00  0.00    -0.269 OA
ATOM     26  C   UNL     1      33.517  69.716  16.377  1.00  0.00     0.077 C 
ATOM     27  O   UNL     1      31.585  67.209  17.711  1.00  0.00    -0.269 OA
ATOM     28  C   UNL     1      33.174  68.953  17.416  1.00  0.00     0.077 C 
ENDBRANCH  21  22
ENDBRANCH  20  21
ENDBRANCH  19  20
ENDBRANCH  17  19
ENDBRANCH  16  17
ENDBRANCH   1  16
TORSDOF 13
ENDMDL
MODEL 8
REMARK VINA RESULT:    -6.061      4.810      8.650
REMARK INTER + INTRA:         -12.326
REMARK INTER:                  -9.964
REMARK INTRA:                  -2.363
REMARK UNBOUND:                -1.659
REMARK SMILES O=C(CCCc1ccc(N(CCCl)CCCl)cc1)OCCN1C(=O)C=CC1=O
REMARK SMILES IDX 4 1 5 2 6 3 9 4 8 5 17 6 7 7 18 8 10 9 11 10 12 11 13 12
REMARK SMILES IDX 14 13 15 14 16 15 3 16 2 17 1 18 19 19 20 20 21 21 22 22
REMARK SMILES IDX 23 23 27 24 24 25 25 26 28 27 26 28
REMARK H PARENT
ROOT
ATOM      1  C   UNL     1      30.025  69.151  16.975  1.00  0.00     0.016 C 
ENDROOT
BRANCH   1   2
ATOM      2  C   UNL     1      28.868  70.131  17.221  1.00  0.00     0.036 C 
BRANCH   2   3
ATOM      3  C   UNL     1      29.219  71.310  18.091  1.00  0.00    -0.048 A 
ATOM      4  C   UNL     1      29.869  73.493  19.703  1.00  0.00     0.037 A 
ATOM      5  C   UNL     1      29.258  73.697  18.466  1.00  0.00     0.026 A 
ATOM      6  C   UNL     1      30.155  72.198  20.134  1.00  0.00     0.026 A 
ATOM      7  C   UNL     1      28.933  72.605  17.659  1.00  0.00     0.006 A 
ATOM      8  C   UNL     1      29.831  71.106  19.329  1.00  0.00     0.006 A 
BRANCH   4   9
ATOM      9  N   UNL     1      30.198  74.597  20.517  1.00  0.00    -0.369 N 
BRANCH   9  10
ATOM     10  C   UNL     1      29.767  75.933  20.149  1.00  0.00     0.132 C 
BRANCH  10  11
ATOM     11  C   UNL     1      28.600  76.386  21.011  1.00  0.00     0.131 C 
ATOM     12  Cl  UNL     1      28.850  78.037  21.629  1.00  0.00    -0.125 Cl
ENDBRANCH  10  11
ENDBRANCH   9  10
BRANCH   9  13
ATOM     13  C   UNL     1      30.956  74.411  21.737  1.00  0.00     0.132 C 
BRANCH  13  14
ATOM     14  C   UNL     1      32.274  75.168  21.681  1.00  0.00     0.131 C 
ATOM     15  Cl  UNL     1      33.136  74.860  20.153  1.00  0.00    -0.125 Cl
ENDBRANCH  13  14
ENDBRANCH   9  13
ENDBRANCH   4   9
ENDBRANCH   2   3
ENDBRANCH   1   2
BRANCH   1  16
ATOM     16  C   UNL     1      29.818  68.238  15.764  1.00  0.00     0.123 C 
BRANCH  16  17
ATOM     17  C   UNL     1      31.024  67.379  15.460  1.00  0.00     0.305 C 
ATOM     18  O   UNL     1      31.063  66.164  15.609  1.00  0.00    -0.252 OA
BRANCH  17  19
ATOM     19  O   UNL     1      32.031  68.158  14.971  1.00  0.00    -0.464 OA
BRANCH  19  20
ATOM     20  C   UNL     1      33.262  68.103  15.698  1.00  0.00     0.255 C 
BRANCH  20  21
ATOM     21  C   UNL     1      34.056  69.372  15.445  1.00  0.00     0.171 C 
BRANCH  21  22
ATOM     22  N   UNL     1      33.611  70.449  16.288  1.00  0.00    -0.272 N 
ATOM     23  C   UNL     1      34.020  70.654  17.585  1.00  0.00     0.253 C 
ATOM     24  C   UNL     1      32.716  71.423  15.912  1.00  0.00     0.253 C 
ATOM     25  O   UNL     1      34.798  70.004  18.262  1.00  0.00    -0.269 OA
ATOM     26  C   UNL     1      33.323  71.860  18.060  1.00  0.00     0.077 C 
ATOM     27  O   UNL     1      32.136  71.576  14.850  1.00  0.00    -0.269 OA
ATOM     28  C   UNL     1      32.553  72.315  17.071  1.00  0.00     0.077 C 
ENDBRANCH  21  22
ENDBRANCH  20  21
ENDBRANCH  19  20
ENDBRANCH  17  19
ENDBRANCH  16  17
ENDBRANCH   1  16
TORSDOF 13
ENDMDL
MODEL 9
REMARK VINA RESULT:    -5.991      4.692      8.555
REMARK INTER + INTRA:         -12.203
REMARK INTER:                  -9.468
REMARK INTRA:                  -2.735
REMARK UNBOUND:                -1.659
REMARK SMILES O=C(CCCc1ccc(N(CCCl)CCCl)cc1)OCCN1C(=O)C=CC1=O
REMARK SMILES IDX 4 1 5 2 6 3 9 4 8 5 17 6 7 7 18 8 10 9 11 10 12 11 13 12
REMARK SMILES IDX 14 13 15 14 16 15 3 16 2 17 1 18 19 19 20 20 21 21 22 22
REMARK SMILES IDX 23 23 27 24 24 25 25 26 28 27 26 28
REMARK H PARENT
ROOT
ATOM      1  C   UNL     1      28.782  69.905  16.284  1.00  0.00     0.016 C 
ENDROOT
BRANCH   1   2
ATOM      2  C   UNL     1      29.408  69.873  17.686  1.00  0.00     0.036 C 
BRANCH   2   3
ATOM      3  C   UNL     1      29.788  71.224  18.234  1.00  0.00    -0.048 A 
ATOM      4  C   UNL     1      30.492  73.726  19.249  1.00  0.00     0.037 A 
ATOM      5  C   UNL     1      30.526  72.603  20.076  1.00  0.00     0.026 A 
ATOM      6  C   UNL     1      30.106  73.598  17.915  1.00  0.00     0.026 A 
ATOM      7  C   UNL     1      30.174  71.352  19.568  1.00  0.00     0.006 A 
ATOM      8  C   UNL     1      29.754  72.347  17.407  1.00  0.00     0.006 A 
BRANCH   4   9
ATOM      9  N   UNL     1      30.848  74.990  19.763  1.00  0.00    -0.369 N 
BRANCH   9  10
ATOM     10  C   UNL     1      31.989  75.127  20.648  1.00  0.00     0.132 C 
BRANCH  10  11
ATOM     11  C   UNL     1      32.979  76.147  20.109  1.00  0.00     0.131 C 
ATOM     12  Cl  UNL     1      34.089  75.414  18.926  1.00  0.00    -0.125 Cl
ENDBRANCH  10  11
ENDBRANCH   9  10
BRANCH   9  13
ATOM     13  C   UNL     1      30.089  76.170  19.403  1.00  0.00     0.132 C 
BRANCH  13  14
ATOM     14  C   UNL     1      29.225  76.638  20.564  1.00  0.00     0.131 C 
ATOM     15  Cl  UNL     1      27.809  75.581  20.789  1.00  0.00    -0.125 Cl
ENDBRANCH  13  14
ENDBRANCH   9  13
ENDBRANCH   4   9
ENDBRANCH   2   3
ENDBRANCH   1   2
BRANCH   1  16
ATOM     16  C   UNL     1      29.537  69.068  15.248  1.00  0.00     0.123 C 
BRANCH  16  17
ATOM     17  C   UNL     1      30.509  69.883  14.426  1.00  0.00     0.305 C 
ATOM     18  O   UNL     1      30.338  71.054  14.111  1.00  0.00    -0.252 OA
BRANCH  17  19
ATOM     19  O   UNL     1      31.603  69.125  14.125  1.00  0.00    -0.464 OA
BRANCH  19  20
ATOM     20  C   UNL     1      32.285  68.553  15.245  1.00  0.00     0.255 C 
BRANCH  20  21
ATOM     21  C   UNL     1      33.656  69.188  15.380  1.00  0.00     0.171 C 
BRANCH  21  22
ATOM     22  N   UNL     1      33.610  70.378  16.187  1.00  0.00    -0.272 N 
ATOM     23  C   UNL     1      33.599  70.397  17.562  1.00  0.00     0.253 C 
ATOM     24  C   UNL     1      33.570  71.661  15.694  1.00  0.00     0.253 C 
ATOM     25  O   UNL     1      33.622  69.464  18.347  1.00  0.00    -0.269 OA
ATOM     26  C   UNL     1      33.551  71.811  17.964  1.00  0.00     0.077 C 
ATOM     27  O   UNL     1      33.561  72.049  14.538  1.00  0.00    -0.269 OA
ATOM     28  C   UNL     1      33.534  72.559  16.860  1.00  0.00     0.077 C 
ENDBRANCH  21  22
ENDBRANCH  20  21
ENDBRANCH  19  20
ENDBRANCH  17  19
ENDBRANCH  16  17
ENDBRANCH   1  16
TORSDOF 13
ENDMDL
