MODEL 1
REMARK VINA RESULT:    -8.269      0.000      0.000
REMARK INTER + INTRA:         -10.593
REMARK INTER:                  -9.719
REMARK INTRA:                  -0.874
REMARK UNBOUND:                -0.874
REMARK SMILES Cc1cccc(-c2nc(Nc3ccc4[nH]ncc4c3)c3ccccc3n2)n1
REMARK SMILES IDX 8 1 26 2 20 3 9 4 25 5 7 6 21 7 24 8 22 9 23 10 10 11 11 13
REMARK SMILES IDX 19 14 12 15 18 16 13 17 14 18 17 19 15 20 16 21 6 23 27 24
REMARK SMILES IDX 5 25 2 26 4 27 3 28 1 29
REMARK H PARENT 10 12 15 22
ROOT
ATOM      1  N   UNL     1      29.979  69.988  19.376  1.00  0.00    -0.209 NA
ATOM      2  N   UNL     1      29.913  68.210  17.752  1.00  0.00    -0.226 NA
ATOM      3  C   UNL     1      29.765  70.489  17.020  1.00  0.00     0.043 A 
ATOM      4  C   UNL     1      29.861  70.862  18.359  1.00  0.00     0.142 A 
ATOM      5  C   UNL     1      29.797  69.110  16.759  1.00  0.00     0.077 A 
ATOM      6  C   UNL     1      29.998  68.698  19.006  1.00  0.00     0.180 A 
ATOM      7  C   UNL     1      29.643  71.421  15.975  1.00  0.00     0.014 A 
ATOM      8  C   UNL     1      29.703  68.697  15.432  1.00  0.00     0.029 A 
ATOM      9  C   UNL     1      29.551  70.981  14.659  1.00  0.00     0.001 A 
ATOM     10  C   UNL     1      29.581  69.617  14.387  1.00  0.00     0.002 A 
ENDROOT
BRANCH   4  11
ATOM     11  N   UNL     1      29.837  72.238  18.699  1.00  0.00    -0.340 N 
ATOM     12  H   UNL     1      28.964  72.715  18.436  1.00  0.00     0.168 HD
BRANCH  11  13
ATOM     13  C   UNL     1      30.773  73.074  19.327  1.00  0.00     0.040 A 
ATOM     14  C   UNL     1      30.508  73.575  20.613  1.00  0.00     0.038 A 
ATOM     15  C   UNL     1      31.965  73.407  18.671  1.00  0.00     0.028 A 
ATOM     16  C   UNL     1      31.457  74.412  21.224  1.00  0.00     0.022 A 
ATOM     17  C   UNL     1      32.919  74.238  19.266  1.00  0.00     0.030 A 
ATOM     18  C   UNL     1      32.630  74.722  20.544  1.00  0.00     0.065 A 
ATOM     19  C   UNL     1      31.574  75.096  22.453  1.00  0.00     0.143 A 
ATOM     20  N   UNL     1      33.331  75.538  21.389  1.00  0.00    -0.278 N 
ATOM     21  N   UNL     1      32.714  75.783  22.557  1.00  0.00    -0.183 NA
ATOM     22  H   UNL     1      34.254  75.931  21.151  1.00  0.00     0.190 HD
ENDBRANCH  11  13
ENDBRANCH   4  11
BRANCH   6  23
ATOM     23  C   UNL     1      30.123  67.729  20.063  1.00  0.00     0.108 A 
ATOM     24  N   UNL     1      29.135  67.756  20.987  1.00  0.00    -0.250 NA
ATOM     25  C   UNL     1      31.192  66.845  20.103  1.00  0.00     0.032 A 
ATOM     26  C   UNL     1      29.224  66.857  21.993  1.00  0.00     0.038 A 
ATOM     27  C   UNL     1      31.250  65.936  21.153  1.00  0.00     0.004 A 
ATOM     28  C   UNL     1      30.250  65.935  22.121  1.00  0.00     0.023 A 
ATOM     29  C   UNL     1      28.135  66.886  23.013  1.00  0.00     0.067 C 
ENDBRANCH   6  23
TORSDOF 3
ENDMDL
MODEL 2
REMARK VINA RESULT:    -8.237      3.687      5.750
REMARK INTER + INTRA:         -10.556
REMARK INTER:                  -9.772
REMARK INTRA:                  -0.784
REMARK UNBOUND:                -0.874
REMARK SMILES Cc1cccc(-c2nc(Nc3ccc4[nH]ncc4c3)c3ccccc3n2)n1
REMARK SMILES IDX 8 1 26 2 20 3 9 4 25 5 7 6 21 7 24 8 22 9 23 10 10 11 11 13
REMARK SMILES IDX 19 14 12 15 18 16 13 17 14 18 17 19 15 20 16 21 6 23 27 24
REMARK SMILES IDX 5 25 2 26 4 27 3 28 1 29
REMARK H PARENT 10 12 15 22
ROOT
ATOM      1  N   UNL     1      30.754  73.412  18.205  1.00  0.00    -0.209 NA
ATOM      2  N   UNL     1      29.394  71.530  18.849  1.00  0.00    -0.226 NA
ATOM      3  C   UNL     1      30.080  71.771  16.564  1.00  0.00     0.043 A 
ATOM      4  C   UNL     1      30.740  72.936  16.946  1.00  0.00     0.142 A 
ATOM      5  C   UNL     1      29.400  71.082  17.581  1.00  0.00     0.077 A 
ATOM      6  C   UNL     1      30.071  72.671  19.092  1.00  0.00     0.180 A 
ATOM      7  C   UNL     1      30.079  71.293  15.242  1.00  0.00     0.014 A 
ATOM      8  C   UNL     1      28.727  69.912  17.237  1.00  0.00     0.029 A 
ATOM      9  C   UNL     1      29.399  70.122  14.925  1.00  0.00     0.001 A 
ATOM     10  C   UNL     1      28.722  69.430  15.925  1.00  0.00     0.002 A 
ENDROOT
BRANCH   4  11
ATOM     11  N   UNL     1      31.448  73.684  15.974  1.00  0.00    -0.340 N 
ATOM     12  H   UNL     1      32.315  73.231  15.652  1.00  0.00     0.168 HD
BRANCH  11  13
ATOM     13  C   UNL     1      31.195  74.922  15.362  1.00  0.00     0.040 A 
ATOM     14  C   UNL     1      30.481  75.911  16.060  1.00  0.00     0.038 A 
ATOM     15  C   UNL     1      31.653  75.166  14.061  1.00  0.00     0.028 A 
ATOM     16  C   UNL     1      30.237  77.143  15.430  1.00  0.00     0.022 A 
ATOM     17  C   UNL     1      31.419  76.387  13.421  1.00  0.00     0.030 A 
ATOM     18  C   UNL     1      30.707  77.352  14.138  1.00  0.00     0.065 A 
ATOM     19  C   UNL     1      29.589  78.350  15.766  1.00  0.00     0.143 A 
ATOM     20  N   UNL     1      30.317  78.623  13.813  1.00  0.00    -0.278 N 
ATOM     21  N   UNL     1      29.635  79.254  14.784  1.00  0.00    -0.183 NA
ATOM     22  H   UNL     1      30.527  79.059  12.904  1.00  0.00     0.190 HD
ENDBRANCH  11  13
ENDBRANCH   4  11
BRANCH   6  23
ATOM     23  C   UNL     1      30.060  73.144  20.452  1.00  0.00     0.108 A 
ATOM     24  N   UNL     1      31.010  74.060  20.749  1.00  0.00    -0.250 NA
ATOM     25  C   UNL     1      29.129  72.674  21.367  1.00  0.00     0.032 A 
ATOM     26  C   UNL     1      31.026  74.524  22.019  1.00  0.00     0.038 A 
ATOM     27  C   UNL     1      29.177  73.174  22.663  1.00  0.00     0.004 A 
ATOM     28  C   UNL     1      30.141  74.118  23.004  1.00  0.00     0.023 A 
ATOM     29  C   UNL     1      32.074  75.534  22.348  1.00  0.00     0.067 C 
ENDBRANCH   6  23
TORSDOF 3
ENDMDL
MODEL 3
REMARK VINA RESULT:    -8.182      3.030      6.226
REMARK INTER + INTRA:         -10.491
REMARK INTER:                  -9.621
REMARK INTRA:                  -0.870
REMARK UNBOUND:                -0.874
REMARK SMILES Cc1cccc(-c2nc(Nc3ccc4[nH]ncc4c3)c3ccccc3n2)n1
REMARK SMILES IDX 8 1 26 2 20 3 9 4 25 5 7 6 21 7 24 8 22 9 23 10 10 11 11 13
REMARK SMILES IDX 19 14 12 15 18 16 13 17 14 18 17 19 15 20 16 21 6 23 27 24
REMARK SMILES IDX 5 25 2 26 4 27 3 28 1 29
REMARK H PARENT 10 12 15 22
ROOT
ATOM      1  N   UNL     1      32.188  72.605  18.561  1.00  0.00    -0.209 NA
ATOM      2  N   UNL     1      30.326  72.237  20.046  1.00  0.00    -0.226 NA
ATOM      3  C   UNL     1      31.901  73.979  20.529  1.00  0.00     0.043 A 
ATOM      4  C   UNL     1      32.580  73.606  19.371  1.00  0.00     0.142 A 
ATOM      5  C   UNL     1      30.745  73.243  20.834  1.00  0.00     0.077 A 
ATOM      6  C   UNL     1      31.070  71.972  18.952  1.00  0.00     0.180 A 
ATOM      7  C   UNL     1      32.330  75.029  21.360  1.00  0.00     0.014 A 
ATOM      8  C   UNL     1      30.040  73.586  21.984  1.00  0.00     0.029 A 
ATOM      9  C   UNL     1      31.607  75.351  22.503  1.00  0.00     0.001 A 
ATOM     10  C   UNL     1      30.460  74.629  22.816  1.00  0.00     0.002 A 
ENDROOT
BRANCH   4  11
ATOM     11  N   UNL     1      33.754  74.305  18.999  1.00  0.00    -0.340 N 
ATOM     12  H   UNL     1      34.590  74.027  19.534  1.00  0.00     0.168 HD
BRANCH  11  13
ATOM     13  C   UNL     1      34.000  75.302  18.042  1.00  0.00     0.040 A 
ATOM     14  C   UNL     1      34.714  74.985  16.873  1.00  0.00     0.038 A 
ATOM     15  C   UNL     1      33.536  76.606  18.255  1.00  0.00     0.028 A 
ATOM     16  C   UNL     1      34.951  75.997  15.928  1.00  0.00     0.022 A 
ATOM     17  C   UNL     1      33.763  77.624  17.323  1.00  0.00     0.030 A 
ATOM     18  C   UNL     1      34.475  77.281  16.171  1.00  0.00     0.065 A 
ATOM     19  C   UNL     1      35.597  76.095  14.677  1.00  0.00     0.143 A 
ATOM     20  N   UNL     1      34.860  78.020  15.085  1.00  0.00    -0.278 N 
ATOM     21  N   UNL     1      35.544  77.325  14.161  1.00  0.00    -0.183 NA
ATOM     22  H   UNL     1      34.644  79.022  14.985  1.00  0.00     0.190 HD
ENDBRANCH  11  13
ENDBRANCH   4  11
BRANCH   6  23
ATOM     23  C   UNL     1      30.615  70.894  18.114  1.00  0.00     0.108 A 
ATOM     24  N   UNL     1      30.102  71.272  16.921  1.00  0.00    -0.250 NA
ATOM     25  C   UNL     1      30.710  69.574  18.529  1.00  0.00     0.032 A 
ATOM     26  C   UNL     1      29.665  70.282  16.110  1.00  0.00     0.038 A 
ATOM     27  C   UNL     1      30.250  68.584  17.669  1.00  0.00     0.004 A 
ATOM     28  C   UNL     1      29.717  68.936  16.433  1.00  0.00     0.023 A 
ATOM     29  C   UNL     1      29.098  70.696  14.794  1.00  0.00     0.067 C 
ENDBRANCH   6  23
TORSDOF 3
ENDMDL
MODEL 4
REMARK VINA RESULT:    -8.126      3.528      6.956
REMARK INTER + INTRA:         -10.425
REMARK INTER:                  -9.575
REMARK INTRA:                  -0.850
REMARK UNBOUND:                -0.874
REMARK SMILES Cc1cccc(-c2nc(Nc3ccc4[nH]ncc4c3)c3ccccc3n2)n1
REMARK SMILES IDX 8 1 26 2 20 3 9 4 25 5 7 6 21 7 24 8 22 9 23 10 10 11 11 13
REMARK SMILES IDX 19 14 12 15 18 16 13 17 14 18 17 19 15 20 16 21 6 23 27 24
REMARK SMILES IDX 5 25 2 26 4 27 3 28 1 29
REMARK H PARENT 10 12 15 22
ROOT
ATOM      1  N   UNL     1      32.052  73.646  16.222  1.00  0.00    -0.209 NA
ATOM      2  N   UNL     1      30.683  72.852  14.406  1.00  0.00    -0.226 NA
ATOM      3  C   UNL     1      30.633  71.711  16.514  1.00  0.00     0.043 A 
ATOM      4  C   UNL     1      31.561  72.643  16.973  1.00  0.00     0.142 A 
ATOM      5  C   UNL     1      30.211  71.861  15.184  1.00  0.00     0.077 A 
ATOM      6  C   UNL     1      31.577  73.690  14.967  1.00  0.00     0.180 A 
ATOM      7  C   UNL     1      30.135  70.671  17.318  1.00  0.00     0.014 A 
ATOM      8  C   UNL     1      29.284  70.947  14.688  1.00  0.00     0.029 A 
ATOM      9  C   UNL     1      29.209  69.773  16.799  1.00  0.00     0.001 A 
ATOM     10  C   UNL     1      28.783  69.911  15.481  1.00  0.00     0.002 A 
ENDROOT
BRANCH   4  11
ATOM     11  N   UNL     1      32.032  72.555  18.307  1.00  0.00    -0.340 N 
ATOM     12  H   UNL     1      32.691  71.779  18.464  1.00  0.00     0.168 HD
BRANCH  11  13
ATOM     13  C   UNL     1      31.776  73.322  19.454  1.00  0.00     0.040 A 
ATOM     14  C   UNL     1      32.537  74.475  19.707  1.00  0.00     0.038 A 
ATOM     15  C   UNL     1      30.764  72.934  20.342  1.00  0.00     0.028 A 
ATOM     16  C   UNL     1      32.266  75.228  20.862  1.00  0.00     0.022 A 
ATOM     17  C   UNL     1      30.482  73.673  21.496  1.00  0.00     0.030 A 
ATOM     18  C   UNL     1      31.254  74.815  21.722  1.00  0.00     0.065 A 
ATOM     19  C   UNL     1      32.775  76.400  21.459  1.00  0.00     0.143 A 
ATOM     20  N   UNL     1      31.238  75.739  22.730  1.00  0.00    -0.278 N 
ATOM     21  N   UNL     1      32.152  76.715  22.597  1.00  0.00    -0.183 NA
ATOM     22  H   UNL     1      30.582  75.693  23.523  1.00  0.00     0.190 HD
ENDBRANCH  11  13
ENDBRANCH   4  11
BRANCH   6  23
ATOM     23  C   UNL     1      32.077  74.748  14.128  1.00  0.00     0.108 A 
ATOM     24  N   UNL     1      31.162  75.680  13.773  1.00  0.00    -0.250 NA
ATOM     25  C   UNL     1      33.406  74.781  13.730  1.00  0.00     0.032 A 
ATOM     26  C   UNL     1      31.601  76.687  12.984  1.00  0.00     0.038 A 
ATOM     27  C   UNL     1      33.819  75.832  12.920  1.00  0.00     0.004 A 
ATOM     28  C   UNL     1      32.906  76.808  12.535  1.00  0.00     0.023 A 
ATOM     29  C   UNL     1      30.594  77.715  12.591  1.00  0.00     0.067 C 
ENDBRANCH   6  23
TORSDOF 3
ENDMDL
MODEL 5
REMARK VINA RESULT:    -8.114      3.315      8.770
REMARK INTER + INTRA:         -10.411
REMARK INTER:                  -9.537
REMARK INTRA:                  -0.874
REMARK UNBOUND:                -0.874
REMARK SMILES Cc1cccc(-c2nc(Nc3ccc4[nH]ncc4c3)c3ccccc3n2)n1
REMARK SMILES IDX 8 1 26 2 20 3 9 4 25 5 7 6 21 7 24 8 22 9 23 10 10 11 11 13
REMARK SMILES IDX 19 14 12 15 18 16 13 17 14 18 17 19 15 20 16 21 6 23 27 24
REMARK SMILES IDX 5 25 2 26 4 27 3 28 1 29
REMARK H PARENT 10 12 15 22
ROOT
ATOM      1  N   UNL     1      29.661  73.840  16.812  1.00  0.00    -0.209 NA
ATOM      2  N   UNL     1      30.641  75.473  18.287  1.00  0.00    -0.226 NA
ATOM      3  C   UNL     1      29.775  73.428  19.191  1.00  0.00     0.043 A 
ATOM      4  C   UNL     1      29.430  73.068  17.890  1.00  0.00     0.142 A 
ATOM      5  C   UNL     1      30.397  74.678  19.343  1.00  0.00     0.077 A 
ATOM      6  C   UNL     1      30.261  75.011  17.079  1.00  0.00     0.180 A 
ATOM      7  C   UNL     1      29.523  72.605  20.302  1.00  0.00     0.014 A 
ATOM      8  C   UNL     1      30.755  75.073  20.630  1.00  0.00     0.029 A 
ATOM      9  C   UNL     1      29.892  73.024  21.576  1.00  0.00     0.001 A 
ATOM     10  C   UNL     1      30.509  74.260  21.740  1.00  0.00     0.002 A 
ENDROOT
BRANCH   4  11
ATOM     11  N   UNL     1      28.800  71.820  17.659  1.00  0.00    -0.340 N 
ATOM     12  H   UNL     1      27.798  71.811  17.897  1.00  0.00     0.168 HD
BRANCH  11  13
ATOM     13  C   UNL     1      29.277  70.596  17.166  1.00  0.00     0.040 A 
ATOM     14  C   UNL     1      29.262  70.347  15.783  1.00  0.00     0.038 A 
ATOM     15  C   UNL     1      29.762  69.626  18.053  1.00  0.00     0.028 A 
ATOM     16  C   UNL     1      29.742  69.115  15.310  1.00  0.00     0.022 A 
ATOM     17  C   UNL     1      30.244  68.395  17.597  1.00  0.00     0.030 A 
ATOM     18  C   UNL     1      30.218  68.175  16.218  1.00  0.00     0.065 A 
ATOM     19  C   UNL     1      29.896  68.495  14.052  1.00  0.00     0.143 A 
ATOM     20  N   UNL     1      30.605  67.105  15.459  1.00  0.00    -0.278 N 
ATOM     21  N   UNL     1      30.421  67.270  14.139  1.00  0.00    -0.183 NA
ATOM     22  H   UNL     1      31.004  66.246  15.865  1.00  0.00     0.190 HD
ENDBRANCH  11  13
ENDBRANCH   4  11
BRANCH   6  23
ATOM     23  C   UNL     1      30.526  75.868  15.953  1.00  0.00     0.108 A 
ATOM     24  N   UNL     1      30.149  77.157  16.111  1.00  0.00    -0.250 NA
ATOM     25  C   UNL     1      31.126  75.375  14.803  1.00  0.00     0.032 A 
ATOM     26  C   UNL     1      30.385  77.988  15.070  1.00  0.00     0.038 A 
ATOM     27  C   UNL     1      31.352  76.258  13.754  1.00  0.00     0.004 A 
ATOM     28  C   UNL     1      30.978  77.592  13.882  1.00  0.00     0.023 A 
ATOM     29  C   UNL     1      29.970  79.410  15.242  1.00  0.00     0.067 C 
ENDBRANCH   6  23
TORSDOF 3
ENDMDL
MODEL 6
REMARK VINA RESULT:    -8.091      3.107      7.621
REMARK INTER + INTRA:         -10.384
REMARK INTER:                  -9.501
REMARK INTRA:                  -0.883
REMARK UNBOUND:                -0.874
REMARK SMILES Cc1cccc(-c2nc(Nc3ccc4[nH]ncc4c3)c3ccccc3n2)n1
REMARK SMILES IDX 8 1 26 2 20 3 9 4 25 5 7 6 21 7 24 8 22 9 23 10 10 11 11 13
REMARK SMILES IDX 19 14 12 15 18 16 13 17 14 18 17 19 15 20 16 21 6 23 27 24
REMARK SMILES IDX 5 25 2 26 4 27 3 28 1 29
REMARK H PARENT 10 12 15 22
ROOT
ATOM      1  N   UNL     1      30.413  73.871  18.168  1.00  0.00    -0.209 NA
ATOM      2  N   UNL     1      32.087  75.585  17.920  1.00  0.00    -0.226 NA
ATOM      3  C   UNL     1      31.171  74.533  15.970  1.00  0.00     0.043 A 
ATOM      4  C   UNL     1      30.383  73.767  16.826  1.00  0.00     0.142 A 
ATOM      5  C   UNL     1      32.033  75.456  16.583  1.00  0.00     0.077 A 
ATOM      6  C   UNL     1      31.274  74.785  18.640  1.00  0.00     0.180 A 
ATOM      7  C   UNL     1      31.123  74.406  14.571  1.00  0.00     0.014 A 
ATOM      8  C   UNL     1      32.838  76.240  15.760  1.00  0.00     0.029 A 
ATOM      9  C   UNL     1      31.937  75.202  13.772  1.00  0.00     0.001 A 
ATOM     10  C   UNL     1      32.796  76.121  14.368  1.00  0.00     0.002 A 
ENDROOT
BRANCH   4  11
ATOM     11  N   UNL     1      29.488  72.814  16.280  1.00  0.00    -0.340 N 
ATOM     12  H   UNL     1      28.589  73.216  15.977  1.00  0.00     0.168 HD
BRANCH  11  13
ATOM     13  C   UNL     1      29.589  71.430  16.070  1.00  0.00     0.040 A 
ATOM     14  C   UNL     1      29.842  70.938  14.778  1.00  0.00     0.038 A 
ATOM     15  C   UNL     1      29.437  70.546  17.145  1.00  0.00     0.028 A 
ATOM     16  C   UNL     1      29.939  69.549  14.588  1.00  0.00     0.022 A 
ATOM     17  C   UNL     1      29.532  69.162  16.973  1.00  0.00     0.030 A 
ATOM     18  C   UNL     1      29.783  68.700  15.678  1.00  0.00     0.065 A 
ATOM     19  C   UNL     1      30.173  68.682  13.500  1.00  0.00     0.143 A 
ATOM     20  N   UNL     1      29.931  67.437  15.175  1.00  0.00    -0.278 N 
ATOM     21  N   UNL     1      30.169  67.394  13.854  1.00  0.00    -0.183 NA
ATOM     22  H   UNL     1      29.866  66.590  15.759  1.00  0.00     0.190 HD
ENDBRANCH  11  13
ENDBRANCH   4  11
BRANCH   6  23
ATOM     23  C   UNL     1      31.338  74.929  20.071  1.00  0.00     0.108 A 
ATOM     24  N   UNL     1      32.132  75.932  20.513  1.00  0.00    -0.250 NA
ATOM     25  C   UNL     1      30.624  74.084  20.909  1.00  0.00     0.032 A 
ATOM     26  C   UNL     1      32.213  76.092  21.853  1.00  0.00     0.038 A 
ATOM     27  C   UNL     1      30.732  74.280  22.281  1.00  0.00     0.004 A 
ATOM     28  C   UNL     1      31.540  75.302  22.771  1.00  0.00     0.023 A 
ATOM     29  C   UNL     1      33.088  77.197  22.343  1.00  0.00     0.067 C 
ENDBRANCH   6  23
TORSDOF 3
ENDMDL
MODEL 7
REMARK VINA RESULT:    -7.844      2.597      8.213
REMARK INTER + INTRA:         -10.094
REMARK INTER:                  -9.192
REMARK INTRA:                  -0.902
REMARK UNBOUND:                -0.874
REMARK SMILES Cc1cccc(-c2nc(Nc3ccc4[nH]ncc4c3)c3ccccc3n2)n1
REMARK SMILES IDX 8 1 26 2 20 3 9 4 25 5 7 6 21 7 24 8 22 9 23 10 10 11 11 13
REMARK SMILES IDX 19 14 12 15 18 16 13 17 14 18 17 19 15 20 16 21 6 23 27 24
REMARK SMILES IDX 5 25 2 26 4 27 3 28 1 29
REMARK H PARENT 10 12 15 22
ROOT
ATOM      1  N   UNL     1      31.397  72.870  18.042  1.00  0.00    -0.209 NA
ATOM      2  N   UNL     1      31.958  74.538  19.687  1.00  0.00    -0.226 NA
ATOM      3  C   UNL     1      30.303  72.881  20.197  1.00  0.00     0.043 A 
ATOM      4  C   UNL     1      30.516  72.360  18.923  1.00  0.00     0.142 A 
ATOM      5  C   UNL     1      31.070  74.004  20.544  1.00  0.00     0.077 A 
ATOM      6  C   UNL     1      32.073  73.943  18.482  1.00  0.00     0.180 A 
ATOM      7  C   UNL     1      29.376  72.330  21.101  1.00  0.00     0.014 A 
ATOM      8  C   UNL     1      30.884  74.554  21.810  1.00  0.00     0.029 A 
ATOM      9  C   UNL     1      29.211  72.899  22.359  1.00  0.00     0.001 A 
ATOM     10  C   UNL     1      29.966  74.012  22.714  1.00  0.00     0.002 A 
ENDROOT
BRANCH   4  11
ATOM     11  N   UNL     1      29.778  71.226  18.503  1.00  0.00    -0.340 N 
ATOM     12  H   UNL     1      28.819  71.192  18.878  1.00  0.00     0.168 HD
BRANCH  11  13
ATOM     13  C   UNL     1      30.100  70.140  17.675  1.00  0.00     0.040 A 
ATOM     14  C   UNL     1      29.665  70.130  16.339  1.00  0.00     0.038 A 
ATOM     15  C   UNL     1      30.851  69.071  18.182  1.00  0.00     0.028 A 
ATOM     16  C   UNL     1      29.997  69.033  15.526  1.00  0.00     0.022 A 
ATOM     17  C   UNL     1      31.189  67.973  17.385  1.00  0.00     0.030 A 
ATOM     18  C   UNL     1      30.744  67.989  16.061  1.00  0.00     0.065 A 
ATOM     19  C   UNL     1      29.767  68.648  14.187  1.00  0.00     0.143 A 
ATOM     20  N   UNL     1      30.897  67.094  15.038  1.00  0.00    -0.278 N 
ATOM     21  N   UNL     1      30.314  67.467  13.887  1.00  0.00    -0.183 NA
ATOM     22  H   UNL     1      31.416  66.209  15.141  1.00  0.00     0.190 HD
ENDBRANCH  11  13
ENDBRANCH   4  11
BRANCH   6  23
ATOM     23  C   UNL     1      33.026  74.520  17.571  1.00  0.00     0.108 A 
ATOM     24  N   UNL     1      33.377  73.730  16.530  1.00  0.00    -0.250 NA
ATOM     25  C   UNL     1      33.529  75.797  17.773  1.00  0.00     0.032 A 
ATOM     26  C   UNL     1      34.271  74.244  15.656  1.00  0.00     0.038 A 
ATOM     27  C   UNL     1      34.447  76.292  16.854  1.00  0.00     0.004 A 
ATOM     28  C   UNL     1      34.830  75.507  15.771  1.00  0.00     0.023 A 
ATOM     29  C   UNL     1      34.660  73.374  14.508  1.00  0.00     0.067 C 
ENDBRANCH   6  23
TORSDOF 3
ENDMDL
MODEL 8
REMARK VINA RESULT:    -7.739      6.733     10.862
REMARK INTER + INTRA:          -9.970
REMARK INTER:                  -9.086
REMARK INTRA:                  -0.885
REMARK UNBOUND:                -0.874
REMARK SMILES Cc1cccc(-c2nc(Nc3ccc4[nH]ncc4c3)c3ccccc3n2)n1
REMARK SMILES IDX 8 1 26 2 20 3 9 4 25 5 7 6 21 7 24 8 22 9 23 10 10 11 11 13
REMARK SMILES IDX 19 14 12 15 18 16 13 17 14 18 17 19 15 20 16 21 6 23 27 24
REMARK SMILES IDX 5 25 2 26 4 27 3 28 1 29
REMARK H PARENT 10 12 15 22
ROOT
ATOM      1  N   UNL     1      29.925  80.146  18.203  1.00  0.00    -0.209 NA
ATOM      2  N   UNL     1      28.359  80.356  16.383  1.00  0.00    -0.226 NA
ATOM      3  C   UNL     1      27.563  79.788  18.573  1.00  0.00     0.043 A 
ATOM      4  C   UNL     1      28.885  79.850  19.005  1.00  0.00     0.142 A 
ATOM      5  C   UNL     1      27.344  80.056  17.212  1.00  0.00     0.077 A 
ATOM      6  C   UNL     1      29.595  80.384  16.924  1.00  0.00     0.180 A 
ATOM      7  C   UNL     1      26.494  79.475  19.430  1.00  0.00     0.014 A 
ATOM      8  C   UNL     1      26.034  80.003  16.742  1.00  0.00     0.029 A 
ATOM      9  C   UNL     1      25.195  79.429  18.934  1.00  0.00     0.001 A 
ATOM     10  C   UNL     1      24.965  79.693  17.588  1.00  0.00     0.002 A 
ENDROOT
BRANCH   4  11
ATOM     11  N   UNL     1      29.184  79.591  20.366  1.00  0.00    -0.340 N 
ATOM     12  H   UNL     1      29.047  80.405  20.983  1.00  0.00     0.168 HD
BRANCH  11  13
ATOM     13  C   UNL     1      29.629  78.441  21.036  1.00  0.00     0.040 A 
ATOM     14  C   UNL     1      29.075  77.190  20.716  1.00  0.00     0.038 A 
ATOM     15  C   UNL     1      30.619  78.544  22.022  1.00  0.00     0.028 A 
ATOM     16  C   UNL     1      29.533  76.051  21.399  1.00  0.00     0.022 A 
ATOM     17  C   UNL     1      31.085  77.420  22.710  1.00  0.00     0.030 A 
ATOM     18  C   UNL     1      30.518  76.189  22.371  1.00  0.00     0.065 A 
ATOM     19  C   UNL     1      29.253  74.668  21.380  1.00  0.00     0.143 A 
ATOM     20  N   UNL     1      30.742  74.923  22.840  1.00  0.00    -0.278 N 
ATOM     21  N   UNL     1      29.987  73.978  22.256  1.00  0.00    -0.183 NA
ATOM     22  H   UNL     1      31.430  74.713  23.578  1.00  0.00     0.190 HD
ENDBRANCH  11  13
ENDBRANCH   4  11
BRANCH   6  23
ATOM     23  C   UNL     1      30.677  80.706  16.030  1.00  0.00     0.108 A 
ATOM     24  N   UNL     1      30.307  81.286  14.866  1.00  0.00    -0.250 NA
ATOM     25  C   UNL     1      31.993  80.427  16.369  1.00  0.00     0.032 A 
ATOM     26  C   UNL     1      31.301  81.600  14.005  1.00  0.00     0.038 A 
ATOM     27  C   UNL     1      32.988  80.763  15.458  1.00  0.00     0.004 A 
ATOM     28  C   UNL     1      32.644  81.362  14.251  1.00  0.00     0.023 A 
ATOM     29  C   UNL     1      30.896  82.240  12.720  1.00  0.00     0.067 C 
ENDBRANCH   6  23
TORSDOF 3
ENDMDL
MODEL 9
REMARK VINA RESULT:    -7.714      3.245      5.873
REMARK INTER + INTRA:          -9.941
REMARK INTER:                  -9.031
REMARK INTRA:                  -0.910
REMARK UNBOUND:                -0.874
REMARK SMILES Cc1cccc(-c2nc(Nc3ccc4[nH]ncc4c3)c3ccccc3n2)n1
REMARK SMILES IDX 8 1 26 2 20 3 9 4 25 5 7 6 21 7 24 8 22 9 23 10 10 11 11 13
REMARK SMILES IDX 19 14 12 15 18 16 13 17 14 18 17 19 15 20 16 21 6 23 27 24
REMARK SMILES IDX 5 25 2 26 4 27 3 28 1 29
REMARK H PARENT 10 12 15 22
ROOT
ATOM      1  N   UNL     1      31.899  72.779  18.462  1.00  0.00    -0.209 NA
ATOM      2  N   UNL     1      29.912  71.959  19.551  1.00  0.00    -0.226 NA
ATOM      3  C   UNL     1      31.231  73.657  20.613  1.00  0.00     0.043 A 
ATOM      4  C   UNL     1      32.083  73.599  19.513  1.00  0.00     0.142 A 
ATOM      5  C   UNL     1      30.126  72.791  20.586  1.00  0.00     0.077 A 
ATOM      6  C   UNL     1      30.810  71.998  18.546  1.00  0.00     0.180 A 
ATOM      7  C   UNL     1      31.446  74.522  21.700  1.00  0.00     0.014 A 
ATOM      8  C   UNL     1      29.251  72.819  21.669  1.00  0.00     0.029 A 
ATOM      9  C   UNL     1      30.556  74.530  22.769  1.00  0.00     0.001 A 
ATOM     10  C   UNL     1      29.457  73.677  22.753  1.00  0.00     0.002 A 
ENDROOT
BRANCH   4  11
ATOM     11  N   UNL     1      33.220  74.444  19.470  1.00  0.00    -0.340 N 
ATOM     12  H   UNL     1      34.031  74.077  19.989  1.00  0.00     0.168 HD
BRANCH  11  13
ATOM     13  C   UNL     1      33.455  75.685  18.857  1.00  0.00     0.040 A 
ATOM     14  C   UNL     1      33.349  76.866  19.610  1.00  0.00     0.038 A 
ATOM     15  C   UNL     1      33.791  75.741  17.498  1.00  0.00     0.028 A 
ATOM     16  C   UNL     1      33.587  78.098  18.978  1.00  0.00     0.022 A 
ATOM     17  C   UNL     1      34.032  76.959  16.854  1.00  0.00     0.030 A 
ATOM     18  C   UNL     1      33.920  78.117  17.628  1.00  0.00     0.065 A 
ATOM     19  C   UNL     1      33.586  79.457  19.357  1.00  0.00     0.143 A 
ATOM     20  N   UNL     1      34.086  79.439  17.316  1.00  0.00    -0.278 N 
ATOM     21  N   UNL     1      33.889  80.277  18.347  1.00  0.00    -0.183 NA
ATOM     22  H   UNL     1      34.340  79.764  16.372  1.00  0.00     0.190 HD
ENDBRANCH  11  13
ENDBRANCH   4  11
BRANCH   6  23
ATOM     23  C   UNL     1      30.574  71.104  17.442  1.00  0.00     0.108 A 
ATOM     24  N   UNL     1      31.673  70.771  16.727  1.00  0.00    -0.250 NA
ATOM     25  C   UNL     1      29.299  70.637  17.157  1.00  0.00     0.032 A 
ATOM     26  C   UNL     1      31.484  69.933  15.683  1.00  0.00     0.038 A 
ATOM     27  C   UNL     1      29.144  69.778  16.076  1.00  0.00     0.004 A 
ATOM     28  C   UNL     1      30.253  69.414  15.319  1.00  0.00     0.023 A 
ATOM     29  C   UNL     1      32.696  69.565  14.894  1.00  0.00     0.067 C 
ENDBRANCH   6  23
TORSDOF 3
ENDMDL
