MODEL 1
REMARK VINA RESULT:    -9.038      0.000      0.000
REMARK INTER + INTRA:          -9.038
REMARK INTER:                  -9.038
REMARK INTRA:                   0.000
REMARK UNBOUND:                 0.000
REMARK SMILES C[n+]1cc2c3c(ccc2c2ccc4cc5c(cc4c21)OCO5)OCO3
REMARK SMILES IDX 25 1 23 2 20 3 22 4 2 5 19 6 10 7 9 8 18 9 4 10 13 11 3 12
REMARK SMILES IDX 5 13 11 14 12 15 17 16 8 17 6 18 14 19 16 20 15 21 1 22 7 23
REMARK SMILES IDX 24 24 21 25
REMARK H PARENT
ROOT
ATOM      1  O   UNL     1      33.410  76.757  20.803  1.00  0.00    -0.453 OA
ATOM      2  O   UNL     1      32.171  77.557  22.702  1.00  0.00    -0.454 OA
ATOM      3  O   UNL     1      32.143  68.935  15.645  1.00  0.00    -0.454 OA
ATOM      4  O   UNL     1      30.291  67.605  16.416  1.00  0.00    -0.454 OA
ATOM      5  N   UNL     1      32.437  73.122  18.794  1.00  0.00    -0.200 N 
ATOM      6  C   UNL     1      31.410  72.331  19.173  1.00  0.00     0.220 A 
ATOM      7  C   UNL     1      30.632  72.748  20.292  1.00  0.00     0.055 A 
ATOM      8  C   UNL     1      30.959  73.971  20.969  1.00  0.00     0.006 A 
ATOM      9  C   UNL     1      31.128  71.122  18.463  1.00  0.00     0.058 A 
ATOM     10  C   UNL     1      32.054  74.727  20.494  1.00  0.00     0.092 A 
ATOM     11  C   UNL     1      30.035  70.318  18.899  1.00  0.00    -0.008 A 
ATOM     12  C   UNL     1      32.769  74.265  19.398  1.00  0.00     0.321 A 
ATOM     13  C   UNL     1      32.387  75.918  21.138  1.00  0.00     0.179 A 
ATOM     14  C   UNL     1      29.566  71.909  20.673  1.00  0.00     0.016 A 
ATOM     15  C   UNL     1      29.275  70.724  19.995  1.00  0.00     0.010 A 
ATOM     16  C   UNL     1      31.872  70.669  17.343  1.00  0.00     0.066 A 
ATOM     17  C   UNL     1      30.255  74.491  22.101  1.00  0.00     0.014 A 
ATOM     18  C   UNL     1      31.684  76.381  22.223  1.00  0.00     0.166 A 
ATOM     19  C   UNL     1      29.710  69.117  18.242  1.00  0.00     0.059 A 
ATOM     20  C   UNL     1      31.522  69.486  16.723  1.00  0.00     0.166 A 
ATOM     21  C   UNL     1      30.469  68.730  17.161  1.00  0.00     0.166 A 
ATOM     22  C   UNL     1      33.369  72.899  17.690  1.00  0.00     0.440 C 
ATOM     23  C   UNL     1      30.611  75.690  22.729  1.00  0.00     0.051 A 
ATOM     24  C   UNL     1      33.266  77.791  21.797  1.00  0.00     0.468 C 
ATOM     25  C   UNL     1      31.357  67.742  15.455  1.00  0.00     0.468 C 
ENDROOT
TORSDOF 0
ENDMDL
MODEL 2
REMARK VINA RESULT:    -8.809      0.681      7.301
REMARK INTER + INTRA:          -8.809
REMARK INTER:                  -8.809
REMARK INTRA:                   0.000
REMARK UNBOUND:                 0.000
REMARK SMILES C[n+]1cc2c3c(ccc2c2ccc4cc5c(cc4c21)OCO5)OCO3
REMARK SMILES IDX 25 1 23 2 20 3 22 4 2 5 19 6 10 7 9 8 18 9 4 10 13 11 3 12
REMARK SMILES IDX 5 13 11 14 12 15 17 16 8 17 6 18 14 19 16 20 15 21 1 22 7 23
REMARK SMILES IDX 24 24 21 25
REMARK H PARENT
ROOT
ATOM      1  O   UNL     1      32.270  69.387  16.054  1.00  0.00    -0.453 OA
ATOM      2  O   UNL     1      30.631  67.657  16.372  1.00  0.00    -0.454 OA
ATOM      3  O   UNL     1      33.603  77.389  20.911  1.00  0.00    -0.454 OA
ATOM      4  O   UNL     1      32.025  77.656  22.710  1.00  0.00    -0.454 OA
ATOM      5  N   UNL     1      32.465  72.848  18.539  1.00  0.00    -0.200 N 
ATOM      6  C   UNL     1      31.613  73.059  19.566  1.00  0.00     0.220 A 
ATOM      7  C   UNL     1      30.616  72.070  19.812  1.00  0.00     0.055 A 
ATOM      8  C   UNL     1      30.550  70.905  18.976  1.00  0.00     0.006 A 
ATOM      9  C   UNL     1      31.723  74.238  20.368  1.00  0.00     0.058 A 
ATOM     10  C   UNL     1      31.488  70.779  17.927  1.00  0.00     0.092 A 
ATOM     11  C   UNL     1      30.802  74.419  21.441  1.00  0.00    -0.008 A 
ATOM     12  C   UNL     1      32.433  71.778  17.743  1.00  0.00     0.321 A 
ATOM     13  C   UNL     1      31.440  69.654  17.104  1.00  0.00     0.179 A 
ATOM     14  C   UNL     1      29.736  72.307  20.886  1.00  0.00     0.016 A 
ATOM     15  C   UNL     1      29.826  73.452  21.679  1.00  0.00     0.010 A 
ATOM     16  C   UNL     1      32.700  75.246  20.163  1.00  0.00     0.066 A 
ATOM     17  C   UNL     1      29.597  69.848  19.122  1.00  0.00     0.014 A 
ATOM     18  C   UNL     1      30.506  68.662  17.279  1.00  0.00     0.166 A 
ATOM     19  C   UNL     1      30.860  75.559  22.263  1.00  0.00     0.059 A 
ATOM     20  C   UNL     1      32.726  76.352  20.991  1.00  0.00     0.166 A 
ATOM     21  C   UNL     1      31.830  76.503  22.014  1.00  0.00     0.166 A 
ATOM     22  C   UNL     1      33.554  73.718  18.097  1.00  0.00     0.440 C 
ATOM     23  C   UNL     1      29.570  68.729  18.282  1.00  0.00     0.051 A 
ATOM     24  C   UNL     1      31.752  68.122  15.598  1.00  0.00     0.468 C 
ATOM     25  C   UNL     1      33.152  78.214  22.005  1.00  0.00     0.468 C 
ENDROOT
TORSDOF 0
ENDMDL
MODEL 3
REMARK VINA RESULT:    -8.028      2.056      7.551
REMARK INTER + INTRA:          -8.028
REMARK INTER:                  -8.028
REMARK INTRA:                   0.000
REMARK UNBOUND:                 0.000
REMARK SMILES C[n+]1cc2c3c(ccc2c2ccc4cc5c(cc4c21)OCO5)OCO3
REMARK SMILES IDX 25 1 23 2 20 3 22 4 2 5 19 6 10 7 9 8 18 9 4 10 13 11 3 12
REMARK SMILES IDX 5 13 11 14 12 15 17 16 8 17 6 18 14 19 16 20 15 21 1 22 7 23
REMARK SMILES IDX 24 24 21 25
REMARK H PARENT
ROOT
ATOM      1  O   UNL     1      29.640  71.666  15.060  1.00  0.00    -0.453 OA
ATOM      2  O   UNL     1      28.868  69.563  15.933  1.00  0.00    -0.454 OA
ATOM      3  O   UNL     1      33.170  79.155  19.627  1.00  0.00    -0.454 OA
ATOM      4  O   UNL     1      33.272  78.826  22.010  1.00  0.00    -0.454 OA
ATOM      5  N   UNL     1      31.163  74.769  17.560  1.00  0.00    -0.200 N 
ATOM      6  C   UNL     1      31.249  74.648  18.902  1.00  0.00     0.220 A 
ATOM      7  C   UNL     1      30.810  73.425  19.486  1.00  0.00     0.055 A 
ATOM      8  C   UNL     1      30.297  72.380  18.645  1.00  0.00     0.006 A 
ATOM      9  C   UNL     1      31.768  75.721  19.693  1.00  0.00     0.058 A 
ATOM     10  C   UNL     1      30.248  72.606  17.252  1.00  0.00     0.092 A 
ATOM     11  C   UNL     1      31.841  75.551  21.106  1.00  0.00    -0.008 A 
ATOM     12  C   UNL     1      30.693  73.820  16.748  1.00  0.00     0.321 A 
ATOM     13  C   UNL     1      29.753  71.603  16.419  1.00  0.00     0.179 A 
ATOM     14  C   UNL     1      30.907  73.318  20.887  1.00  0.00     0.016 A 
ATOM     15  C   UNL     1      31.409  74.354  21.677  1.00  0.00     0.010 A 
ATOM     16  C   UNL     1      32.220  76.955  19.155  1.00  0.00     0.066 A 
ATOM     17  C   UNL     1      29.826  71.113  19.114  1.00  0.00     0.014 A 
ATOM     18  C   UNL     1      29.310  70.399  16.910  1.00  0.00     0.166 A 
ATOM     19  C   UNL     1      32.340  76.571  21.936  1.00  0.00     0.059 A 
ATOM     20  C   UNL     1      32.705  77.933  20.002  1.00  0.00     0.166 A 
ATOM     21  C   UNL     1      32.764  77.745  21.356  1.00  0.00     0.166 A 
ATOM     22  C   UNL     1      31.543  75.923  16.745  1.00  0.00     0.440 C 
ATOM     23  C   UNL     1      29.334  70.123  18.255  1.00  0.00     0.051 A 
ATOM     24  C   UNL     1      29.081  70.372  14.761  1.00  0.00     0.468 C 
ATOM     25  C   UNL     1      33.527  79.717  20.905  1.00  0.00     0.468 C 
ENDROOT
TORSDOF 0
ENDMDL
MODEL 4
REMARK VINA RESULT:    -7.918      1.280      7.839
REMARK INTER + INTRA:          -7.918
REMARK INTER:                  -7.918
REMARK INTRA:                   0.000
REMARK UNBOUND:                 0.000
REMARK SMILES C[n+]1cc2c3c(ccc2c2ccc4cc5c(cc4c21)OCO5)OCO3
REMARK SMILES IDX 25 1 23 2 20 3 22 4 2 5 19 6 10 7 9 8 18 9 4 10 13 11 3 12
REMARK SMILES IDX 5 13 11 14 12 15 17 16 8 17 6 18 14 19 16 20 15 21 1 22 7 23
REMARK SMILES IDX 24 24 21 25
REMARK H PARENT
ROOT
ATOM      1  O   UNL     1      30.150  68.235  16.464  1.00  0.00    -0.453 OA
ATOM      2  O   UNL     1      31.797  67.546  14.854  1.00  0.00    -0.454 OA
ATOM      3  O   UNL     1      30.194  75.653  22.327  1.00  0.00    -0.454 OA
ATOM      4  O   UNL     1      32.183  76.993  22.114  1.00  0.00    -0.454 OA
ATOM      5  N   UNL     1      30.637  71.700  18.904  1.00  0.00    -0.200 N 
ATOM      6  C   UNL     1      31.726  72.496  18.834  1.00  0.00     0.220 A 
ATOM      7  C   UNL     1      32.742  72.145  17.898  1.00  0.00     0.055 A 
ATOM      8  C   UNL     1      32.579  70.979  17.076  1.00  0.00     0.006 A 
ATOM      9  C   UNL     1      31.837  73.646  19.676  1.00  0.00     0.058 A 
ATOM     10  C   UNL     1      31.401  70.213  17.227  1.00  0.00     0.092 A 
ATOM     11  C   UNL     1      33.005  74.457  19.568  1.00  0.00    -0.008 A 
ATOM     12  C   UNL     1      30.451  70.610  18.157  1.00  0.00     0.321 A 
ATOM     13  C   UNL     1      31.225  69.077  16.438  1.00  0.00     0.179 A 
ATOM     14  C   UNL     1      33.870  72.986  17.839  1.00  0.00     0.016 A 
ATOM     15  C   UNL     1      33.999  74.112  18.654  1.00  0.00     0.010 A 
ATOM     16  C   UNL     1      30.852  74.036  20.619  1.00  0.00     0.066 A 
ATOM     17  C   UNL     1      33.526  70.526  16.104  1.00  0.00     0.014 A 
ATOM     18  C   UNL     1      32.161  68.676  15.516  1.00  0.00     0.166 A 
ATOM     19  C   UNL     1      33.172  75.600  20.371  1.00  0.00     0.059 A 
ATOM     20  C   UNL     1      31.051  75.165  21.390  1.00  0.00     0.166 A 
ATOM     21  C   UNL     1      32.181  75.927  21.268  1.00  0.00     0.166 A 
ATOM     22  C   UNL     1      29.480  71.855  19.786  1.00  0.00     0.440 C 
ATOM     23  C   UNL     1      33.324  69.381  15.325  1.00  0.00     0.051 A 
ATOM     24  C   UNL     1      30.520  67.271  15.459  1.00  0.00     0.468 C 
ATOM     25  C   UNL     1      30.919  76.813  22.784  1.00  0.00     0.468 C 
ENDROOT
TORSDOF 0
ENDMDL
MODEL 5
REMARK VINA RESULT:    -7.777      1.947      2.928
REMARK INTER + INTRA:          -7.777
REMARK INTER:                  -7.777
REMARK INTRA:                   0.000
REMARK UNBOUND:                 0.000
REMARK SMILES C[n+]1cc2c3c(ccc2c2ccc4cc5c(cc4c21)OCO5)OCO3
REMARK SMILES IDX 25 1 23 2 20 3 22 4 2 5 19 6 10 7 9 8 18 9 4 10 13 11 3 12
REMARK SMILES IDX 5 13 11 14 12 15 17 16 8 17 6 18 14 19 16 20 15 21 1 22 7 23
REMARK SMILES IDX 24 24 21 25
REMARK H PARENT
ROOT
ATOM      1  O   UNL     1      29.390  76.537  21.672  1.00  0.00    -0.453 OA
ATOM      2  O   UNL     1      31.274  77.450  22.853  1.00  0.00    -0.454 OA
ATOM      3  O   UNL     1      29.145  69.930  14.912  1.00  0.00    -0.454 OA
ATOM      4  O   UNL     1      31.333  69.098  14.348  1.00  0.00    -0.454 OA
ATOM      5  N   UNL     1      29.801  73.536  18.669  1.00  0.00    -0.200 N 
ATOM      6  C   UNL     1      30.997  73.024  18.307  1.00  0.00     0.220 A 
ATOM      7  C   UNL     1      32.157  73.521  18.969  1.00  0.00     0.055 A 
ATOM      8  C   UNL     1      32.020  74.531  19.981  1.00  0.00     0.006 A 
ATOM      9  C   UNL     1      31.077  72.019  17.293  1.00  0.00     0.058 A 
ATOM     10  C   UNL     1      30.722  75.001  20.286  1.00  0.00     0.092 A 
ATOM     11  C   UNL     1      32.360  71.508  16.942  1.00  0.00    -0.008 A 
ATOM     12  C   UNL     1      29.635  74.474  19.604  1.00  0.00     0.321 A 
ATOM     13  C   UNL     1      30.569  75.981  21.265  1.00  0.00     0.179 A 
ATOM     14  C   UNL     1      33.395  72.976  18.578  1.00  0.00     0.016 A 
ATOM     15  C   UNL     1      33.495  71.996  17.589  1.00  0.00     0.010 A 
ATOM     16  C   UNL     1      29.950  71.492  16.609  1.00  0.00     0.066 A 
ATOM     17  C   UNL     1      33.106  75.107  20.712  1.00  0.00     0.014 A 
ATOM     18  C   UNL     1      31.640  76.509  21.944  1.00  0.00     0.166 A 
ATOM     19  C   UNL     1      32.503  70.519  15.951  1.00  0.00     0.059 A 
ATOM     20  C   UNL     1      30.129  70.522  15.642  1.00  0.00     0.166 A 
ATOM     21  C   UNL     1      31.373  70.048  15.322  1.00  0.00     0.166 A 
ATOM     22  C   UNL     1      28.486  73.189  18.128  1.00  0.00     0.440 C 
ATOM     23  C   UNL     1      32.923  76.091  21.691  1.00  0.00     0.051 A 
ATOM     24  C   UNL     1      29.845  77.463  22.677  1.00  0.00     0.468 C 
ATOM     25  C   UNL     1      29.915  69.028  14.093  1.00  0.00     0.468 C 
ENDROOT
TORSDOF 0
ENDMDL
MODEL 6
REMARK VINA RESULT:    -7.098      2.629      3.856
REMARK INTER + INTRA:          -7.098
REMARK INTER:                  -7.098
REMARK INTRA:                   0.000
REMARK UNBOUND:                 0.000
REMARK SMILES C[n+]1cc2c3c(ccc2c2ccc4cc5c(cc4c21)OCO5)OCO3
REMARK SMILES IDX 25 1 23 2 20 3 22 4 2 5 19 6 10 7 9 8 18 9 4 10 13 11 3 12
REMARK SMILES IDX 5 13 11 14 12 15 17 16 8 17 6 18 14 19 16 20 15 21 1 22 7 23
REMARK SMILES IDX 24 24 21 25
REMARK H PARENT
ROOT
ATOM      1  O   UNL     1      33.358  80.193  18.274  1.00  0.00    -0.453 OA
ATOM      2  O   UNL     1      33.952  81.255  20.349  1.00  0.00    -0.454 OA
ATOM      3  O   UNL     1      29.647  71.635  16.734  1.00  0.00    -0.454 OA
ATOM      4  O   UNL     1      29.278  70.403  18.769  1.00  0.00    -0.454 OA
ATOM      5  N   UNL     1      31.696  76.269  18.099  1.00  0.00    -0.200 N 
ATOM      6  C   UNL     1      31.461  75.526  19.202  1.00  0.00     0.220 A 
ATOM      7  C   UNL     1      31.789  76.096  20.466  1.00  0.00     0.055 A 
ATOM      8  C   UNL     1      32.348  77.417  20.526  1.00  0.00     0.006 A 
ATOM      9  C   UNL     1      30.901  74.215  19.085  1.00  0.00     0.058 A 
ATOM     10  C   UNL     1      32.555  78.112  19.314  1.00  0.00     0.092 A 
ATOM     11  C   UNL     1      30.671  73.465  20.276  1.00  0.00    -0.008 A 
ATOM     12  C   UNL     1      32.213  77.499  18.117  1.00  0.00     0.321 A 
ATOM     13  C   UNL     1      33.098  79.396  19.351  1.00  0.00     0.179 A 
ATOM     14  C   UNL     1      31.538  75.306  21.605  1.00  0.00     0.016 A 
ATOM     15  C   UNL     1      30.994  74.023  21.512  1.00  0.00     0.010 A 
ATOM     16  C   UNL     1      30.557  73.608  17.850  1.00  0.00     0.066 A 
ATOM     17  C   UNL     1      32.718  78.093  21.732  1.00  0.00     0.014 A 
ATOM     18  C   UNL     1      33.440  80.009  20.532  1.00  0.00     0.166 A 
ATOM     19  C   UNL     1      30.125  72.170  20.224  1.00  0.00     0.059 A 
ATOM     20  C   UNL     1      30.022  72.334  17.839  1.00  0.00     0.166 A 
ATOM     21  C   UNL     1      29.811  71.634  18.996  1.00  0.00     0.166 A 
ATOM     22  C   UNL     1      31.449  75.895  16.707  1.00  0.00     0.440 C 
ATOM     23  C   UNL     1      33.261  79.383  21.741  1.00  0.00     0.051 A 
ATOM     24  C   UNL     1      33.897  81.367  18.914  1.00  0.00     0.468 C 
ATOM     25  C   UNL     1      29.176  70.410  17.331  1.00  0.00     0.468 C 
ENDROOT
TORSDOF 0
ENDMDL
MODEL 7
REMARK VINA RESULT:    -6.999      2.555      2.588
REMARK INTER + INTRA:          -6.999
REMARK INTER:                  -6.999
REMARK INTRA:                   0.000
REMARK UNBOUND:                 0.000
REMARK SMILES C[n+]1cc2c3c(ccc2c2ccc4cc5c(cc4c21)OCO5)OCO3
REMARK SMILES IDX 25 1 23 2 20 3 22 4 2 5 19 6 10 7 9 8 18 9 4 10 13 11 3 12
REMARK SMILES IDX 5 13 11 14 12 15 17 16 8 17 6 18 14 19 16 20 15 21 1 22 7 23
REMARK SMILES IDX 24 24 21 25
REMARK H PARENT
ROOT
ATOM      1  O   UNL     1      30.619  78.560  17.665  1.00  0.00    -0.453 OA
ATOM      2  O   UNL     1      30.003  79.701  19.690  1.00  0.00    -0.454 OA
ATOM      3  O   UNL     1      30.956  69.289  15.839  1.00  0.00    -0.454 OA
ATOM      4  O   UNL     1      30.321  67.946  17.734  1.00  0.00    -0.454 OA
ATOM      5  N   UNL     1      30.613  74.307  17.335  1.00  0.00    -0.200 N 
ATOM      6  C   UNL     1      30.266  73.496  18.358  1.00  0.00     0.220 A 
ATOM      7  C   UNL     1      29.888  74.108  19.588  1.00  0.00     0.055 A 
ATOM      8  C   UNL     1      29.890  75.540  19.700  1.00  0.00     0.006 A 
ATOM      9  C   UNL     1      30.282  72.076  18.192  1.00  0.00     0.058 A 
ATOM     10  C   UNL     1      30.270  76.299  18.571  1.00  0.00     0.092 A 
ATOM     11  C   UNL     1      29.908  71.258  19.298  1.00  0.00    -0.008 A 
ATOM     12  C   UNL     1      30.625  75.640  17.402  1.00  0.00     0.321 A 
ATOM     13  C   UNL     1      30.278  77.690  18.660  1.00  0.00     0.179 A 
ATOM     14  C   UNL     1      29.530  73.246  20.643  1.00  0.00     0.016 A 
ATOM     15  C   UNL     1      29.541  71.857  20.503  1.00  0.00     0.010 A 
ATOM     16  C   UNL     1      30.647  71.423  16.986  1.00  0.00     0.066 A 
ATOM     17  C   UNL     1      29.532  76.266  20.879  1.00  0.00     0.014 A 
ATOM     18  C   UNL     1      29.928  78.349  19.813  1.00  0.00     0.166 A 
ATOM     19  C   UNL     1      29.906  69.855  19.197  1.00  0.00     0.059 A 
ATOM     20  C   UNL     1      30.632  70.043  16.924  1.00  0.00     0.166 A 
ATOM     21  C   UNL     1      30.271  69.280  18.001  1.00  0.00     0.166 A 
ATOM     22  C   UNL     1      31.040  73.911  15.993  1.00  0.00     0.440 C 
ATOM     23  C   UNL     1      29.549  77.665  20.941  1.00  0.00     0.051 A 
ATOM     24  C   UNL     1      30.441  79.829  18.324  1.00  0.00     0.468 C 
ATOM     25  C   UNL     1      30.757  67.959  16.359  1.00  0.00     0.468 C 
ENDROOT
TORSDOF 0
ENDMDL
MODEL 8
REMARK VINA RESULT:    -6.928      1.661      7.799
REMARK INTER + INTRA:          -6.928
REMARK INTER:                  -6.928
REMARK INTRA:                   0.000
REMARK UNBOUND:                 0.000
REMARK SMILES C[n+]1cc2c3c(ccc2c2ccc4cc5c(cc4c21)OCO5)OCO3
REMARK SMILES IDX 25 1 23 2 20 3 22 4 2 5 19 6 10 7 9 8 18 9 4 10 13 11 3 12
REMARK SMILES IDX 5 13 11 14 12 15 17 16 8 17 6 18 14 19 16 20 15 21 1 22 7 23
REMARK SMILES IDX 24 24 21 25
REMARK H PARENT
ROOT
ATOM      1  O   UNL     1      29.557  69.689  19.625  1.00  0.00    -0.453 OA
ATOM      2  O   UNL     1      30.425  68.202  17.946  1.00  0.00    -0.454 OA
ATOM      3  O   UNL     1      32.103  78.549  21.724  1.00  0.00    -0.454 OA
ATOM      4  O   UNL     1      33.891  79.356  20.329  1.00  0.00    -0.454 OA
ATOM      5  N   UNL     1      31.059  73.641  20.189  1.00  0.00    -0.200 N 
ATOM      6  C   UNL     1      32.057  74.156  19.439  1.00  0.00     0.220 A 
ATOM      7  C   UNL     1      32.617  73.328  18.423  1.00  0.00     0.055 A 
ATOM      8  C   UNL     1      32.112  71.997  18.233  1.00  0.00     0.006 A 
ATOM      9  C   UNL     1      32.523  75.488  19.672  1.00  0.00     0.058 A 
ATOM     10  C   UNL     1      31.064  71.553  19.070  1.00  0.00     0.092 A 
ATOM     11  C   UNL     1      33.579  75.991  18.857  1.00  0.00    -0.008 A 
ATOM     12  C   UNL     1      30.564  72.410  20.040  1.00  0.00     0.321 A 
ATOM     13  C   UNL     1      30.561  70.264  18.901  1.00  0.00     0.179 A 
ATOM     14  C   UNL     1      33.658  73.882  17.653  1.00  0.00     0.016 A 
ATOM     15  C   UNL     1      34.128  75.180  17.865  1.00  0.00     0.010 A 
ATOM     16  C   UNL     1      31.994  76.349  20.668  1.00  0.00     0.066 A 
ATOM     17  C   UNL     1      32.592  71.075  17.250  1.00  0.00     0.014 A 
ATOM     18  C   UNL     1      31.051  69.409  17.944  1.00  0.00     0.166 A 
ATOM     19  C   UNL     1      34.080  77.293  19.039  1.00  0.00     0.059 A 
ATOM     20  C   UNL     1      32.512  77.622  20.817  1.00  0.00     0.166 A 
ATOM     21  C   UNL     1      33.527  78.081  20.023  1.00  0.00     0.166 A 
ATOM     22  C   UNL     1      30.342  74.294  21.283  1.00  0.00     0.440 C 
ATOM     23  C   UNL     1      32.068  69.786  17.101  1.00  0.00     0.051 A 
ATOM     24  C   UNL     1      29.477  68.386  19.014  1.00  0.00     0.468 C 
ATOM     25  C   UNL     1      32.983  79.647  21.410  1.00  0.00     0.468 C 
ENDROOT
TORSDOF 0
ENDMDL
MODEL 9
REMARK VINA RESULT:    -6.815      5.164      9.216
REMARK INTER + INTRA:          -6.815
REMARK INTER:                  -6.815
REMARK INTRA:                   0.000
REMARK UNBOUND:                 0.000
REMARK SMILES C[n+]1cc2c3c(ccc2c2ccc4cc5c(cc4c21)OCO5)OCO3
REMARK SMILES IDX 25 1 23 2 20 3 22 4 2 5 19 6 10 7 9 8 18 9 4 10 13 11 3 12
REMARK SMILES IDX 5 13 11 14 12 15 17 16 8 17 6 18 14 19 16 20 15 21 1 22 7 23
REMARK SMILES IDX 24 24 21 25
REMARK H PARENT
ROOT
ATOM      1  O   UNL     1      29.028  75.175  21.170  1.00  0.00    -0.453 OA
ATOM      2  O   UNL     1      30.315  73.972  22.807  1.00  0.00    -0.454 OA
ATOM      3  O   UNL     1      31.178  83.072  16.436  1.00  0.00    -0.454 OA
ATOM      4  O   UNL     1      33.346  83.941  17.017  1.00  0.00    -0.454 OA
ATOM      5  N   UNL     1      30.451  78.733  19.297  1.00  0.00    -0.200 N 
ATOM      6  C   UNL     1      31.658  79.272  19.575  1.00  0.00     0.220 A 
ATOM      7  C   UNL     1      32.474  78.608  20.536  1.00  0.00     0.055 A 
ATOM      8  C   UNL     1      31.995  77.410  21.168  1.00  0.00     0.006 A 
ATOM      9  C   UNL     1      32.085  80.468  18.917  1.00  0.00     0.058 A 
ATOM     10  C   UNL     1      30.717  76.927  20.807  1.00  0.00     0.092 A 
ATOM     11  C   UNL     1      33.366  81.002  19.242  1.00  0.00    -0.008 A 
ATOM     12  C   UNL     1      29.975  77.622  19.862  1.00  0.00     0.321 A 
ATOM     13  C   UNL     1      30.236  75.765  21.409  1.00  0.00     0.179 A 
ATOM     14  C   UNL     1      33.728  79.185  20.814  1.00  0.00     0.016 A 
ATOM     15  C   UNL     1      34.163  80.353  20.184  1.00  0.00     0.010 A 
ATOM     16  C   UNL     1      31.309  81.161  17.952  1.00  0.00     0.066 A 
ATOM     17  C   UNL     1      32.720  76.657  22.145  1.00  0.00     0.014 A 
ATOM     18  C   UNL     1      30.965  75.073  22.344  1.00  0.00     0.166 A 
ATOM     19  C   UNL     1      33.840  82.176  18.629  1.00  0.00     0.059 A 
ATOM     20  C   UNL     1      31.809  82.311  17.371  1.00  0.00     0.166 A 
ATOM     21  C   UNL     1      33.041  82.804  17.700  1.00  0.00     0.166 A 
ATOM     22  C   UNL     1      29.448  79.237  18.359  1.00  0.00     0.440 C 
ATOM     23  C   UNL     1      32.212  75.493  22.734  1.00  0.00     0.051 A 
ATOM     24  C   UNL     1      29.088  74.041  22.058  1.00  0.00     0.468 C 
ATOM     25  C   UNL     1      32.159  84.105  16.216  1.00  0.00     0.468 C 
ENDROOT
TORSDOF 0
ENDMDL
