MODEL 1
REMARK VINA RESULT:    -7.764      0.000      0.000
REMARK INTER + INTRA:         -18.667
REMARK INTER:                 -14.119
REMARK INTRA:                  -4.549
REMARK UNBOUND:                -4.549
REMARK SMILES O=C(CCCc1ccc(N(CCCl)CCCl)cc1)O[C@H](c1ccccc1)c1cc(O)c2c(c1O)C(=O)c1ccccc1C2=O
REMARK SMILES IDX 4 1 5 2 6 3 9 4 8 5 17 6 7 7 18 8 10 9 11 10 12 11 13 12
REMARK SMILES IDX 14 13 15 14 16 15 3 16 2 17 1 18 19 19 20 20 27 21 33 22
REMARK SMILES IDX 28 23 32 24 29 25 31 26 35 27 43 28 36 29 37 30 44 31 42 32
REMARK SMILES IDX 38 33 41 34 39 35 40 36 34 37 30 39 21 41 22 42 26 43 23 44
REMARK SMILES IDX 25 45 24 46
REMARK H PARENT 34 38 30 40
ROOT
ATOM      1  C   UNL     1      31.320  73.237  14.911  1.00  0.00     0.016 C 
ENDROOT
BRANCH   1   2
ATOM      2  C   UNL     1      32.417  73.919  15.741  1.00  0.00     0.036 C 
BRANCH   2   3
ATOM      3  C   UNL     1      31.966  75.150  16.486  1.00  0.00    -0.048 A 
ATOM      4  C   UNL     1      31.133  77.428  17.863  1.00  0.00     0.037 A 
ATOM      5  C   UNL     1      30.200  76.644  17.182  1.00  0.00     0.026 A 
ATOM      6  C   UNL     1      32.482  77.074  17.854  1.00  0.00     0.026 A 
ATOM      7  C   UNL     1      30.618  75.506  16.494  1.00  0.00     0.006 A 
ATOM      8  C   UNL     1      32.898  75.934  17.165  1.00  0.00     0.006 A 
BRANCH   4   9
ATOM      9  N   UNL     1      30.711  78.581  18.558  1.00  0.00    -0.369 N 
BRANCH   9  10
ATOM     10  C   UNL     1      31.618  79.270  19.453  1.00  0.00     0.132 C 
BRANCH  10  11
ATOM     11  C   UNL     1      32.314  80.421  18.744  1.00  0.00     0.131 C 
ATOM     12  Cl  UNL     1      33.636  81.090  19.733  1.00  0.00    -0.125 Cl
ENDBRANCH  10  11
ENDBRANCH   9  10
BRANCH   9  13
ATOM     13  C   UNL     1      29.359  79.081  18.398  1.00  0.00     0.132 C 
BRANCH  13  14
ATOM     14  C   UNL     1      28.845  79.685  19.695  1.00  0.00     0.131 C 
ATOM     15  Cl  UNL     1      27.066  79.647  19.771  1.00  0.00    -0.125 Cl
ENDBRANCH  13  14
ENDBRANCH   9  13
ENDBRANCH   4   9
ENDBRANCH   2   3
ENDBRANCH   1   2
BRANCH   1  16
ATOM     16  C   UNL     1      31.253  71.720  15.096  1.00  0.00     0.123 C 
BRANCH  16  17
ATOM     17  C   UNL     1      29.839  71.205  15.241  1.00  0.00     0.306 C 
ATOM     18  O   UNL     1      28.922  71.477  14.479  1.00  0.00    -0.252 OA
BRANCH  17  19
ATOM     19  O   UNL     1      29.768  70.383  16.324  1.00  0.00    -0.452 OA
BRANCH  19  20
ATOM     20  C   UNL     1      30.678  70.699  17.393  1.00  0.00     0.241 C 
BRANCH  20  21
ATOM     21  C   UNL     1      30.210  71.862  18.206  1.00  0.00     0.043 A 
ATOM     22  C   UNL     1      31.114  72.648  18.920  1.00  0.00     0.135 A 
ATOM     23  C   UNL     1      28.848  72.154  18.243  1.00  0.00     0.058 A 
ATOM     24  C   UNL     1      30.652  73.733  19.675  1.00  0.00     0.080 A 
ATOM     25  C   UNL     1      28.384  73.234  18.994  1.00  0.00     0.128 A 
ATOM     26  C   UNL     1      29.288  74.026  19.713  1.00  0.00     0.079 A 
ATOM     27  C   UNL     1      31.618  74.561  20.427  1.00  0.00     0.198 C 
ATOM     28  C   UNL     1      28.788  75.168  20.507  1.00  0.00     0.198 C 
ATOM     29  O   UNL     1      32.819  74.326  20.413  1.00  0.00    -0.288 OA
ATOM     30  C   UNL     1      31.118  75.702  21.220  1.00  0.00     0.034 A 
ATOM     31  O   UNL     1      27.597  75.445  20.556  1.00  0.00    -0.288 OA
ATOM     32  C   UNL     1      29.753  75.995  21.259  1.00  0.00     0.034 A 
ATOM     33  C   UNL     1      32.022  76.494  21.939  1.00  0.00     0.013 A 
ATOM     34  C   UNL     1      29.292  77.080  22.015  1.00  0.00     0.013 A 
ATOM     35  C   UNL     1      31.559  77.574  22.691  1.00  0.00     0.001 A 
ATOM     36  C   UNL     1      30.197  77.866  22.728  1.00  0.00     0.001 A 
BRANCH  22  37
ATOM     37  O   UNL     1      32.437  72.323  18.851  1.00  0.00    -0.507 OA
ATOM     38  H   UNL     1      33.096  72.993  18.538  1.00  0.00     0.293 HD
ENDBRANCH  22  37
BRANCH  25  39
ATOM     39  O   UNL     1      27.040  73.466  18.990  1.00  0.00    -0.507 OA
ATOM     40  H   UNL     1      26.413  72.750  19.257  1.00  0.00     0.293 HD
ENDBRANCH  25  39
ENDBRANCH  20  21
BRANCH  20  41
ATOM     41  C   UNL     1      30.945  69.445  18.216  1.00  0.00    -0.003 A 
ATOM     42  C   UNL     1      29.939  68.911  19.022  1.00  0.00     0.008 A 
ATOM     43  C   UNL     1      32.196  68.829  18.162  1.00  0.00     0.008 A 
ATOM     44  C   UNL     1      30.184  67.764  19.775  1.00  0.00     0.000 A 
ATOM     45  C   UNL     1      32.440  67.681  18.916  1.00  0.00     0.000 A 
ATOM     46  C   UNL     1      31.435  67.148  19.722  1.00  0.00     0.000 A 
ENDBRANCH  20  41
ENDBRANCH  19  20
ENDBRANCH  17  19
ENDBRANCH  16  17
ENDBRANCH   1  16
TORSDOF 15
ENDMDL
MODEL 2
REMARK VINA RESULT:    -7.756      0.888      1.981
REMARK INTER + INTRA:         -18.652
REMARK INTER:                 -14.640
REMARK INTRA:                  -4.012
REMARK UNBOUND:                -4.549
REMARK SMILES O=C(CCCc1ccc(N(CCCl)CCCl)cc1)O[C@H](c1ccccc1)c1cc(O)c2c(c1O)C(=O)c1ccccc1C2=O
REMARK SMILES IDX 4 1 5 2 6 3 9 4 8 5 17 6 7 7 18 8 10 9 11 10 12 11 13 12
REMARK SMILES IDX 14 13 15 14 16 15 3 16 2 17 1 18 19 19 20 20 27 21 33 22
REMARK SMILES IDX 28 23 32 24 29 25 31 26 35 27 43 28 36 29 37 30 44 31 42 32
REMARK SMILES IDX 38 33 41 34 39 35 40 36 34 37 30 39 21 41 22 42 26 43 23 44
REMARK SMILES IDX 25 45 24 46
REMARK H PARENT 34 38 30 40
ROOT
ATOM      1  C   UNL     1      31.312  73.415  15.068  1.00  0.00     0.016 C 
ENDROOT
BRANCH   1   2
ATOM      2  C   UNL     1      31.039  74.765  14.390  1.00  0.00     0.036 C 
BRANCH   2   3
ATOM      3  C   UNL     1      30.746  75.897  15.341  1.00  0.00    -0.048 A 
ATOM      4  C   UNL     1      30.205  77.992  17.101  1.00  0.00     0.037 A 
ATOM      5  C   UNL     1      30.680  76.775  17.591  1.00  0.00     0.026 A 
ATOM      6  C   UNL     1      30.000  78.162  15.732  1.00  0.00     0.026 A 
ATOM      7  C   UNL     1      30.950  75.728  16.711  1.00  0.00     0.006 A 
ATOM      8  C   UNL     1      30.271  77.114  14.852  1.00  0.00     0.006 A 
BRANCH   4   9
ATOM      9  N   UNL     1      29.930  79.051  17.992  1.00  0.00    -0.369 N 
BRANCH   9  10
ATOM     10  C   UNL     1      28.880  80.004  17.696  1.00  0.00     0.132 C 
BRANCH  10  11
ATOM     11  C   UNL     1      28.220  80.503  18.973  1.00  0.00     0.131 C 
ATOM     12  Cl  UNL     1      27.175  79.254  19.695  1.00  0.00    -0.125 Cl
ENDBRANCH  10  11
ENDBRANCH   9  10
BRANCH   9  13
ATOM     13  C   UNL     1      30.705  79.207  19.207  1.00  0.00     0.132 C 
BRANCH  13  14
ATOM     14  C   UNL     1      32.014  79.931  18.930  1.00  0.00     0.131 C 
ATOM     15  Cl  UNL     1      33.163  79.740  20.277  1.00  0.00    -0.125 Cl
ENDBRANCH  13  14
ENDBRANCH   9  13
ENDBRANCH   4   9
ENDBRANCH   2   3
ENDBRANCH   1   2
BRANCH   1  16
ATOM     16  C   UNL     1      30.318  72.316  14.686  1.00  0.00     0.123 C 
BRANCH  16  17
ATOM     17  C   UNL     1      30.780  70.936  15.097  1.00  0.00     0.306 C 
ATOM     18  O   UNL     1      31.610  70.274  14.488  1.00  0.00    -0.252 OA
BRANCH  17  19
ATOM     19  O   UNL     1      30.151  70.574  16.249  1.00  0.00    -0.452 OA
BRANCH  19  20
ATOM     20  C   UNL     1      30.899  70.810  17.455  1.00  0.00     0.241 C 
BRANCH  20  21
ATOM     21  C   UNL     1      30.363  71.966  18.233  1.00  0.00     0.043 A 
ATOM     22  C   UNL     1      31.210  72.776  18.991  1.00  0.00     0.135 A 
ATOM     23  C   UNL     1      28.995  72.230  18.195  1.00  0.00     0.058 A 
ATOM     24  C   UNL     1      30.686  73.854  19.713  1.00  0.00     0.080 A 
ATOM     25  C   UNL     1      28.469  73.303  18.914  1.00  0.00     0.128 A 
ATOM     26  C   UNL     1      29.316  74.117  19.676  1.00  0.00     0.079 A 
ATOM     27  C   UNL     1      31.591  74.705  20.513  1.00  0.00     0.198 C 
ATOM     28  C   UNL     1      28.749  75.252  20.435  1.00  0.00     0.198 C 
ATOM     29  O   UNL     1      32.796  74.496  20.565  1.00  0.00    -0.288 OA
ATOM     30  C   UNL     1      31.025  75.840  21.271  1.00  0.00     0.034 A 
ATOM     31  O   UNL     1      27.551  75.504  20.417  1.00  0.00    -0.288 OA
ATOM     32  C   UNL     1      29.654  76.103  21.233  1.00  0.00     0.034 A 
ATOM     33  C   UNL     1      31.872  76.654  22.033  1.00  0.00     0.013 A 
ATOM     34  C   UNL     1      29.130  77.181  21.957  1.00  0.00     0.013 A 
ATOM     35  C   UNL     1      31.345  77.727  22.752  1.00  0.00     0.001 A 
ATOM     36  C   UNL     1      29.978  77.990  22.714  1.00  0.00     0.001 A 
BRANCH  22  37
ATOM     37  O   UNL     1      32.543  72.478  18.996  1.00  0.00    -0.507 OA
ATOM     38  H   UNL     1      32.864  71.640  18.577  1.00  0.00     0.293 HD
ENDBRANCH  22  37
BRANCH  25  39
ATOM     39  O   UNL     1      27.123  73.507  18.835  1.00  0.00    -0.507 OA
ATOM     40  H   UNL     1      26.645  73.951  19.579  1.00  0.00     0.293 HD
ENDBRANCH  25  39
ENDBRANCH  20  21
BRANCH  20  41
ATOM     41  C   UNL     1      30.985  69.518  18.257  1.00  0.00    -0.003 A 
ATOM     42  C   UNL     1      29.880  69.073  18.983  1.00  0.00     0.008 A 
ATOM     43  C   UNL     1      32.168  68.779  18.264  1.00  0.00     0.008 A 
ATOM     44  C   UNL     1      29.957  67.890  19.717  1.00  0.00     0.000 A 
ATOM     45  C   UNL     1      32.245  67.596  18.999  1.00  0.00     0.000 A 
ATOM     46  C   UNL     1      31.141  67.151  19.725  1.00  0.00     0.000 A 
ENDBRANCH  20  41
ENDBRANCH  19  20
ENDBRANCH  17  19
ENDBRANCH  16  17
ENDBRANCH   1  16
TORSDOF 15
ENDMDL
MODEL 3
REMARK VINA RESULT:    -7.643      2.194      5.039
REMARK INTER + INTRA:         -18.447
REMARK INTER:                 -13.880
REMARK INTRA:                  -4.567
REMARK UNBOUND:                -4.549
REMARK SMILES O=C(CCCc1ccc(N(CCCl)CCCl)cc1)O[C@H](c1ccccc1)c1cc(O)c2c(c1O)C(=O)c1ccccc1C2=O
REMARK SMILES IDX 4 1 5 2 6 3 9 4 8 5 17 6 7 7 18 8 10 9 11 10 12 11 13 12
REMARK SMILES IDX 14 13 15 14 16 15 3 16 2 17 1 18 19 19 20 20 27 21 33 22
REMARK SMILES IDX 28 23 32 24 29 25 31 26 35 27 43 28 36 29 37 30 44 31 42 32
REMARK SMILES IDX 38 33 41 34 39 35 40 36 34 37 30 39 21 41 22 42 26 43 23 44
REMARK SMILES IDX 25 45 24 46
REMARK H PARENT 34 38 30 40
ROOT
ATOM      1  C   UNL     1      30.977  74.254  21.958  1.00  0.00     0.016 C 
ENDROOT
BRANCH   1   2
ATOM      2  C   UNL     1      30.874  75.678  22.523  1.00  0.00     0.036 C 
BRANCH   2   3
ATOM      3  C   UNL     1      30.328  76.698  21.556  1.00  0.00    -0.048 A 
ATOM      4  C   UNL     1      29.318  78.584  19.767  1.00  0.00     0.037 A 
ATOM      5  C   UNL     1      29.063  78.712  21.132  1.00  0.00     0.026 A 
ATOM      6  C   UNL     1      30.077  77.514  19.295  1.00  0.00     0.026 A 
ATOM      7  C   UNL     1      29.568  77.769  22.027  1.00  0.00     0.006 A 
ATOM      8  C   UNL     1      30.582  76.571  20.190  1.00  0.00     0.006 A 
BRANCH   4   9
ATOM      9  N   UNL     1      28.805  79.538  18.862  1.00  0.00    -0.369 N 
BRANCH   9  10
ATOM     10  C   UNL     1      29.420  79.720  17.563  1.00  0.00     0.132 C 
BRANCH  10  11
ATOM     11  C   UNL     1      30.462  80.827  17.603  1.00  0.00     0.131 C 
ATOM     12  Cl  UNL     1      32.105  80.165  17.792  1.00  0.00    -0.125 Cl
ENDBRANCH  10  11
ENDBRANCH   9  10
BRANCH   9  13
ATOM     13  C   UNL     1      27.668  80.359  19.228  1.00  0.00     0.132 C 
BRANCH  13  14
ATOM     14  C   UNL     1      26.361  79.624  18.972  1.00  0.00     0.131 C 
ATOM     15  Cl  UNL     1      25.720  79.978  17.348  1.00  0.00    -0.125 Cl
ENDBRANCH  13  14
ENDBRANCH   9  13
ENDBRANCH   4   9
ENDBRANCH   2   3
ENDBRANCH   1   2
BRANCH   1  16
ATOM     16  C   UNL     1      29.670  73.462  22.027  1.00  0.00     0.123 C 
BRANCH  16  17
ATOM     17  C   UNL     1      29.074  73.190  20.664  1.00  0.00     0.306 C 
ATOM     18  O   UNL     1      28.189  73.859  20.149  1.00  0.00    -0.252 OA
BRANCH  17  19
ATOM     19  O   UNL     1      29.695  72.113  20.108  1.00  0.00    -0.452 OA
BRANCH  19  20
ATOM     20  C   UNL     1      29.776  72.129  18.671  1.00  0.00     0.241 C 
BRANCH  20  21
ATOM     21  C   UNL     1      30.801  73.095  18.175  1.00  0.00     0.043 A 
ATOM     22  C   UNL     1      30.439  74.172  17.365  1.00  0.00     0.135 A 
ATOM     23  C   UNL     1      32.135  72.907  18.531  1.00  0.00     0.058 A 
ATOM     24  C   UNL     1      31.416  75.065  16.911  1.00  0.00     0.080 A 
ATOM     25  C   UNL     1      33.112  73.795  18.080  1.00  0.00     0.128 A 
ATOM     26  C   UNL     1      32.752  74.877  17.268  1.00  0.00     0.079 A 
ATOM     27  C   UNL     1      31.022  76.203  16.055  1.00  0.00     0.198 C 
ATOM     28  C   UNL     1      33.794  75.812  16.794  1.00  0.00     0.198 C 
ATOM     29  O   UNL     1      29.858  76.392  15.726  1.00  0.00    -0.288 OA
ATOM     30  C   UNL     1      32.063  77.138  15.582  1.00  0.00     0.034 A 
ATOM     31  O   UNL     1      34.972  75.668  17.093  1.00  0.00    -0.288 OA
ATOM     32  C   UNL     1      33.400  76.949  15.938  1.00  0.00     0.034 A 
ATOM     33  C   UNL     1      31.704  78.220  14.769  1.00  0.00     0.013 A 
ATOM     34  C   UNL     1      34.378  77.843  15.482  1.00  0.00     0.013 A 
ATOM     35  C   UNL     1      32.681  79.108  14.318  1.00  0.00     0.001 A 
ATOM     36  C   UNL     1      34.014  78.920  14.674  1.00  0.00     0.001 A 
BRANCH  22  37
ATOM     37  O   UNL     1      29.119  74.315  17.044  1.00  0.00    -0.507 OA
ATOM     38  H   UNL     1      28.830  74.250  16.099  1.00  0.00     0.293 HD
ENDBRANCH  22  37
BRANCH  25  39
ATOM     39  O   UNL     1      34.398  73.554  18.464  1.00  0.00    -0.507 OA
ATOM     40  H   UNL     1      35.085  74.260  18.364  1.00  0.00     0.293 HD
ENDBRANCH  25  39
ENDBRANCH  20  21
BRANCH  20  41
ATOM     41  C   UNL     1      29.977  70.707  18.162  1.00  0.00    -0.003 A 
ATOM     42  C   UNL     1      29.832  70.425  16.804  1.00  0.00     0.008 A 
ATOM     43  C   UNL     1      30.306  69.687  19.055  1.00  0.00     0.008 A 
ATOM     44  C   UNL     1      30.015  69.123  16.338  1.00  0.00     0.000 A 
ATOM     45  C   UNL     1      30.489  68.385  18.589  1.00  0.00     0.000 A 
ATOM     46  C   UNL     1      30.344  68.103  17.231  1.00  0.00     0.000 A 
ENDBRANCH  20  41
ENDBRANCH  19  20
ENDBRANCH  17  19
ENDBRANCH  16  17
ENDBRANCH   1  16
TORSDOF 15
ENDMDL
MODEL 4
REMARK VINA RESULT:    -7.602      3.400      8.481
REMARK INTER + INTRA:         -18.373
REMARK INTER:                 -13.386
REMARK INTRA:                  -4.987
REMARK UNBOUND:                -4.549
REMARK SMILES O=C(CCCc1ccc(N(CCCl)CCCl)cc1)O[C@H](c1ccccc1)c1cc(O)c2c(c1O)C(=O)c1ccccc1C2=O
REMARK SMILES IDX 4 1 5 2 6 3 9 4 8 5 17 6 7 7 18 8 10 9 11 10 12 11 13 12
REMARK SMILES IDX 14 13 15 14 16 15 3 16 2 17 1 18 19 19 20 20 27 21 33 22
REMARK SMILES IDX 28 23 32 24 29 25 31 26 35 27 43 28 36 29 37 30 44 31 42 32
REMARK SMILES IDX 38 33 41 34 39 35 40 36 34 37 30 39 21 41 22 42 26 43 23 44
REMARK SMILES IDX 25 45 24 46
REMARK H PARENT 34 38 30 40
ROOT
ATOM      1  C   UNL     1      30.175  75.484  22.120  1.00  0.00     0.016 C 
ENDROOT
BRANCH   1   2
ATOM      2  C   UNL     1      29.227  75.368  20.918  1.00  0.00     0.036 C 
BRANCH   2   3
ATOM      3  C   UNL     1      29.267  74.036  20.214  1.00  0.00    -0.048 A 
ATOM      4  C   UNL     1      29.341  71.570  18.911  1.00  0.00     0.037 A 
ATOM      5  C   UNL     1      30.334  71.902  19.833  1.00  0.00     0.026 A 
ATOM      6  C   UNL     1      28.311  72.471  18.640  1.00  0.00     0.026 A 
ATOM      7  C   UNL     1      30.297  73.134  20.484  1.00  0.00     0.006 A 
ATOM      8  C   UNL     1      28.275  73.704  19.292  1.00  0.00     0.006 A 
BRANCH   4   9
ATOM      9  N   UNL     1      29.379  70.324  18.252  1.00  0.00    -0.369 N 
BRANCH   9  10
ATOM     10  C   UNL     1      28.376  69.987  17.261  1.00  0.00     0.132 C 
BRANCH  10  11
ATOM     11  C   UNL     1      29.017  69.384  16.021  1.00  0.00     0.131 C 
ATOM     12  Cl  UNL     1      28.764  70.416  14.591  1.00  0.00    -0.125 Cl
ENDBRANCH  10  11
ENDBRANCH   9  10
BRANCH   9  13
ATOM     13  C   UNL     1      30.412  69.357  18.568  1.00  0.00     0.132 C 
BRANCH  13  14
ATOM     14  C   UNL     1      29.879  68.270  19.488  1.00  0.00     0.131 C 
ATOM     15  Cl  UNL     1      31.160  67.124  19.954  1.00  0.00    -0.125 Cl
ENDBRANCH  13  14
ENDBRANCH   9  13
ENDBRANCH   4   9
ENDBRANCH   2   3
ENDBRANCH   1   2
BRANCH   1  16
ATOM     16  C   UNL     1      30.400  76.920  22.598  1.00  0.00     0.123 C 
BRANCH  16  17
ATOM     17  C   UNL     1      31.602  77.574  21.955  1.00  0.00     0.306 C 
ATOM     18  O   UNL     1      32.749  77.472  22.366  1.00  0.00    -0.252 OA
BRANCH  17  19
ATOM     19  O   UNL     1      31.202  78.258  20.847  1.00  0.00    -0.452 OA
BRANCH  19  20
ATOM     20  C   UNL     1      32.109  78.198  19.731  1.00  0.00     0.241 C 
BRANCH  20  21
ATOM     21  C   UNL     1      31.886  76.987  18.887  1.00  0.00     0.043 A 
ATOM     22  C   UNL     1      32.739  75.887  18.970  1.00  0.00     0.135 A 
ATOM     23  C   UNL     1      30.805  76.967  18.007  1.00  0.00     0.058 A 
ATOM     24  C   UNL     1      32.510  74.762  18.169  1.00  0.00     0.080 A 
ATOM     25  C   UNL     1      30.574  75.849  17.207  1.00  0.00     0.128 A 
ATOM     26  C   UNL     1      31.429  74.743  17.287  1.00  0.00     0.079 A 
ATOM     27  C   UNL     1      33.420  73.602  18.265  1.00  0.00     0.198 C 
ATOM     28  C   UNL     1      31.177  73.562  16.435  1.00  0.00     0.198 C 
ATOM     29  O   UNL     1      34.377  73.591  19.028  1.00  0.00    -0.288 OA
ATOM     30  C   UNL     1      33.168  72.421  17.414  1.00  0.00     0.034 A 
ATOM     31  O   UNL     1      30.235  73.520  15.654  1.00  0.00    -0.288 OA
ATOM     32  C   UNL     1      32.086  72.402  16.531  1.00  0.00     0.034 A 
ATOM     33  C   UNL     1      34.023  71.315  17.494  1.00  0.00     0.013 A 
ATOM     34  C   UNL     1      31.859  71.276  15.729  1.00  0.00     0.013 A 
ATOM     35  C   UNL     1      33.792  70.195  16.694  1.00  0.00     0.001 A 
ATOM     36  C   UNL     1      32.713  70.177  15.814  1.00  0.00     0.001 A 
BRANCH  22  37
ATOM     37  O   UNL     1      33.783  75.953  19.848  1.00  0.00    -0.507 OA
ATOM     38  H   UNL     1      33.618  76.183  20.797  1.00  0.00     0.293 HD
ENDBRANCH  22  37
BRANCH  25  39
ATOM     39  O   UNL     1      29.501  75.893  16.366  1.00  0.00    -0.507 OA
ATOM     40  H   UNL     1      29.451  76.588  15.663  1.00  0.00     0.293 HD
ENDBRANCH  25  39
ENDBRANCH  20  21
BRANCH  20  41
ATOM     41  C   UNL     1      32.040  79.508  18.955  1.00  0.00    -0.003 A 
ATOM     42  C   UNL     1      30.802  80.058  18.624  1.00  0.00     0.008 A 
ATOM     43  C   UNL     1      33.216  80.156  18.576  1.00  0.00     0.008 A 
ATOM     44  C   UNL     1      30.739  81.256  17.913  1.00  0.00     0.000 A 
ATOM     45  C   UNL     1      33.152  81.355  17.865  1.00  0.00     0.000 A 
ATOM     46  C   UNL     1      31.914  81.905  17.534  1.00  0.00     0.000 A 
ENDBRANCH  20  41
ENDBRANCH  19  20
ENDBRANCH  17  19
ENDBRANCH  16  17
ENDBRANCH   1  16
TORSDOF 15
ENDMDL
MODEL 5
REMARK VINA RESULT:    -7.555      1.725      2.840
REMARK INTER + INTRA:         -18.288
REMARK INTER:                 -13.421
REMARK INTRA:                  -4.867
REMARK UNBOUND:                -4.549
REMARK SMILES O=C(CCCc1ccc(N(CCCl)CCCl)cc1)O[C@H](c1ccccc1)c1cc(O)c2c(c1O)C(=O)c1ccccc1C2=O
REMARK SMILES IDX 4 1 5 2 6 3 9 4 8 5 17 6 7 7 18 8 10 9 11 10 12 11 13 12
REMARK SMILES IDX 14 13 15 14 16 15 3 16 2 17 1 18 19 19 20 20 27 21 33 22
REMARK SMILES IDX 28 23 32 24 29 25 31 26 35 27 43 28 36 29 37 30 44 31 42 32
REMARK SMILES IDX 38 33 41 34 39 35 40 36 34 37 30 39 21 41 22 42 26 43 23 44
REMARK SMILES IDX 25 45 24 46
REMARK H PARENT 34 38 30 40
ROOT
ATOM      1  C   UNL     1      29.546  71.367  15.034  1.00  0.00     0.016 C 
ENDROOT
BRANCH   1   2
ATOM      2  C   UNL     1      30.920  72.029  14.860  1.00  0.00     0.036 C 
BRANCH   2   3
ATOM      3  C   UNL     1      31.062  73.367  15.538  1.00  0.00    -0.048 A 
ATOM      4  C   UNL     1      31.325  75.844  16.794  1.00  0.00     0.037 A 
ATOM      5  C   UNL     1      30.196  75.060  17.029  1.00  0.00     0.026 A 
ATOM      6  C   UNL     1      32.323  75.391  15.931  1.00  0.00     0.026 A 
ATOM      7  C   UNL     1      30.065  73.822  16.401  1.00  0.00     0.006 A 
ATOM      8  C   UNL     1      32.191  74.152  15.303  1.00  0.00     0.006 A 
BRANCH   4   9
ATOM      9  N   UNL     1      31.457  77.097  17.429  1.00  0.00    -0.369 N 
BRANCH   9  10
ATOM     10  C   UNL     1      32.767  77.690  17.617  1.00  0.00     0.132 C 
BRANCH  10  11
ATOM     11  C   UNL     1      32.931  78.932  16.756  1.00  0.00     0.131 C 
ATOM     12  Cl  UNL     1      33.999  78.623  15.365  1.00  0.00    -0.125 Cl
ENDBRANCH  10  11
ENDBRANCH   9  10
BRANCH   9  13
ATOM     13  C   UNL     1      30.287  77.801  17.915  1.00  0.00     0.132 C 
BRANCH  13  14
ATOM     14  C   UNL     1      30.502  78.301  19.335  1.00  0.00     0.131 C 
ATOM     15  Cl  UNL     1      29.006  78.985  20.019  1.00  0.00    -0.125 Cl
ENDBRANCH  13  14
ENDBRANCH   9  13
ENDBRANCH   4   9
ENDBRANCH   2   3
ENDBRANCH   1   2
BRANCH   1  16
ATOM     16  C   UNL     1      29.598  69.996  15.712  1.00  0.00     0.123 C 
BRANCH  16  17
ATOM     17  C   UNL     1      28.493  69.798  16.725  1.00  0.00     0.306 C 
ATOM     18  O   UNL     1      27.370  69.391  16.454  1.00  0.00    -0.252 OA
BRANCH  17  19
ATOM     19  O   UNL     1      28.957  70.113  17.965  1.00  0.00    -0.452 OA
BRANCH  19  20
ATOM     20  C   UNL     1      30.368  69.911  18.160  1.00  0.00     0.241 C 
BRANCH  20  21
ATOM     21  C   UNL     1      31.052  71.147  18.645  1.00  0.00     0.043 A 
ATOM     22  C   UNL     1      30.441  71.986  19.577  1.00  0.00     0.135 A 
ATOM     23  C   UNL     1      32.319  71.456  18.153  1.00  0.00     0.058 A 
ATOM     24  C   UNL     1      31.100  73.139  20.019  1.00  0.00     0.080 A 
ATOM     25  C   UNL     1      32.979  72.604  18.589  1.00  0.00     0.128 A 
ATOM     26  C   UNL     1      32.369  73.449  19.525  1.00  0.00     0.079 A 
ATOM     27  C   UNL     1      30.445  74.021  21.006  1.00  0.00     0.198 C 
ATOM     28  C   UNL     1      33.075  74.664  19.981  1.00  0.00     0.198 C 
ATOM     29  O   UNL     1      29.333  73.775  21.455  1.00  0.00    -0.288 OA
ATOM     30  C   UNL     1      31.151  75.235  21.463  1.00  0.00     0.034 A 
ATOM     31  O   UNL     1      34.188  74.957  19.563  1.00  0.00    -0.288 OA
ATOM     32  C   UNL     1      32.420  75.545  20.968  1.00  0.00     0.034 A 
ATOM     33  C   UNL     1      30.541  76.080  22.399  1.00  0.00     0.013 A 
ATOM     34  C   UNL     1      33.078  76.700  21.410  1.00  0.00     0.013 A 
ATOM     35  C   UNL     1      31.201  77.229  22.835  1.00  0.00     0.001 A 
ATOM     36  C   UNL     1      32.466  77.538  22.342  1.00  0.00     0.001 A 
BRANCH  22  37
ATOM     37  O   UNL     1      29.201  71.641  20.031  1.00  0.00    -0.507 OA
ATOM     38  H   UNL     1      28.634  72.315  20.485  1.00  0.00     0.293 HD
ENDBRANCH  22  37
BRANCH  25  39
ATOM     39  O   UNL     1      34.215  72.850  18.068  1.00  0.00    -0.507 OA
ATOM     40  H   UNL     1      34.670  73.708  18.256  1.00  0.00     0.293 HD
ENDBRANCH  25  39
ENDBRANCH  20  21
BRANCH  20  41
ATOM     41  C   UNL     1      30.586  68.698  19.055  1.00  0.00    -0.003 A 
ATOM     42  C   UNL     1      29.603  68.320  19.970  1.00  0.00     0.008 A 
ATOM     43  C   UNL     1      31.769  67.964  18.959  1.00  0.00     0.008 A 
ATOM     44  C   UNL     1      29.803  67.210  20.790  1.00  0.00     0.000 A 
ATOM     45  C   UNL     1      31.968  66.854  19.779  1.00  0.00     0.000 A 
ATOM     46  C   UNL     1      30.985  66.476  20.694  1.00  0.00     0.000 A 
ENDBRANCH  20  41
ENDBRANCH  19  20
ENDBRANCH  17  19
ENDBRANCH  16  17
ENDBRANCH   1  16
TORSDOF 15
ENDMDL
MODEL 6
REMARK VINA RESULT:    -7.516      2.748      6.236
REMARK INTER + INTRA:         -18.216
REMARK INTER:                 -13.394
REMARK INTRA:                  -4.822
REMARK UNBOUND:                -4.549
REMARK SMILES O=C(CCCc1ccc(N(CCCl)CCCl)cc1)O[C@H](c1ccccc1)c1cc(O)c2c(c1O)C(=O)c1ccccc1C2=O
REMARK SMILES IDX 4 1 5 2 6 3 9 4 8 5 17 6 7 7 18 8 10 9 11 10 12 11 13 12
REMARK SMILES IDX 14 13 15 14 16 15 3 16 2 17 1 18 19 19 20 20 27 21 33 22
REMARK SMILES IDX 28 23 32 24 29 25 31 26 35 27 43 28 36 29 37 30 44 31 42 32
REMARK SMILES IDX 38 33 41 34 39 35 40 36 34 37 30 39 21 41 22 42 26 43 23 44
REMARK SMILES IDX 25 45 24 46
REMARK H PARENT 34 38 30 40
ROOT
ATOM      1  C   UNL     1      33.086  77.449  22.357  1.00  0.00     0.016 C 
ENDROOT
BRANCH   1   2
ATOM      2  C   UNL     1      33.510  77.747  20.912  1.00  0.00     0.036 C 
BRANCH   2   3
ATOM      3  C   UNL     1      32.463  78.445  20.082  1.00  0.00    -0.048 A 
ATOM      4  C   UNL     1      30.526  79.737  18.547  1.00  0.00     0.037 A 
ATOM      5  C   UNL     1      30.177  79.162  19.769  1.00  0.00     0.026 A 
ATOM      6  C   UNL     1      31.842  79.667  18.092  1.00  0.00     0.026 A 
ATOM      7  C   UNL     1      31.146  78.516  20.536  1.00  0.00     0.006 A 
ATOM      8  C   UNL     1      32.811  79.020  18.860  1.00  0.00     0.006 A 
BRANCH   4   9
ATOM      9  N   UNL     1      29.545  80.390  17.770  1.00  0.00    -0.369 N 
BRANCH   9  10
ATOM     10  C   UNL     1      28.383  80.982  18.403  1.00  0.00     0.132 C 
BRANCH  10  11
ATOM     11  C   UNL     1      27.098  80.396  17.839  1.00  0.00     0.131 C 
ATOM     12  Cl  UNL     1      26.134  79.602  19.109  1.00  0.00    -0.125 Cl
ENDBRANCH  10  11
ENDBRANCH   9  10
BRANCH   9  13
ATOM     13  C   UNL     1      29.680  80.463  16.329  1.00  0.00     0.132 C 
BRANCH  13  14
ATOM     14  C   UNL     1      30.374  81.749  15.910  1.00  0.00     0.131 C 
ATOM     15  Cl  UNL     1      31.652  81.439  14.709  1.00  0.00    -0.125 Cl
ENDBRANCH  13  14
ENDBRANCH   9  13
ENDBRANCH   4   9
ENDBRANCH   2   3
ENDBRANCH   1   2
BRANCH   1  16
ATOM     16  C   UNL     1      33.129  75.964  22.724  1.00  0.00     0.123 C 
BRANCH  16  17
ATOM     17  C   UNL     1      31.909  75.205  22.253  1.00  0.00     0.306 C 
ATOM     18  O   UNL     1      30.805  75.275  22.776  1.00  0.00    -0.252 OA
BRANCH  17  19
ATOM     19  O   UNL     1      32.233  74.468  21.155  1.00  0.00    -0.452 OA
BRANCH  19  20
ATOM     20  C   UNL     1      31.261  74.491  20.094  1.00  0.00     0.241 C 
BRANCH  20  21
ATOM     21  C   UNL     1      31.823  75.043  18.826  1.00  0.00     0.043 A 
ATOM     22  C   UNL     1      31.008  75.703  17.906  1.00  0.00     0.135 A 
ATOM     23  C   UNL     1      33.184  74.889  18.568  1.00  0.00     0.058 A 
ATOM     24  C   UNL     1      31.557  76.211  16.723  1.00  0.00     0.080 A 
ATOM     25  C   UNL     1      33.735  75.394  17.390  1.00  0.00     0.128 A 
ATOM     26  C   UNL     1      32.920  76.057  16.465  1.00  0.00     0.079 A 
ATOM     27  C   UNL     1      30.685  76.909  15.756  1.00  0.00     0.198 C 
ATOM     28  C   UNL     1      33.512  76.588  15.219  1.00  0.00     0.198 C 
ATOM     29  O   UNL     1      29.487  77.058  15.956  1.00  0.00    -0.288 OA
ATOM     30  C   UNL     1      31.277  77.441  14.511  1.00  0.00     0.034 A 
ATOM     31  O   UNL     1      34.704  76.466  14.970  1.00  0.00    -0.288 OA
ATOM     32  C   UNL     1      32.640  77.285  14.253  1.00  0.00     0.034 A 
ATOM     33  C   UNL     1      30.462  78.104  13.586  1.00  0.00     0.013 A 
ATOM     34  C   UNL     1      33.189  77.794  13.068  1.00  0.00     0.013 A 
ATOM     35  C   UNL     1      31.012  78.609  12.408  1.00  0.00     0.001 A 
ATOM     36  C   UNL     1      32.372  78.454  12.150  1.00  0.00     0.001 A 
BRANCH  22  37
ATOM     37  O   UNL     1      29.682  75.829  18.204  1.00  0.00    -0.507 OA
ATOM     38  H   UNL     1      29.376  76.557  18.802  1.00  0.00     0.293 HD
ENDBRANCH  22  37
BRANCH  25  39
ATOM     39  O   UNL     1      35.073  75.209  17.197  1.00  0.00    -0.507 OA
ATOM     40  H   UNL     1      35.654  74.965  17.960  1.00  0.00     0.293 HD
ENDBRANCH  25  39
ENDBRANCH  20  21
BRANCH  20  41
ATOM     41  C   UNL     1      30.648  73.104  19.942  1.00  0.00    -0.003 A 
ATOM     42  C   UNL     1      29.549  72.737  20.718  1.00  0.00     0.008 A 
ATOM     43  C   UNL     1      31.187  72.201  19.025  1.00  0.00     0.008 A 
ATOM     44  C   UNL     1      28.989  71.468  20.579  1.00  0.00     0.000 A 
ATOM     45  C   UNL     1      30.626  70.931  18.886  1.00  0.00     0.000 A 
ATOM     46  C   UNL     1      29.528  70.565  19.662  1.00  0.00     0.000 A 
ENDBRANCH  20  41
ENDBRANCH  19  20
ENDBRANCH  17  19
ENDBRANCH  16  17
ENDBRANCH   1  16
TORSDOF 15
ENDMDL
MODEL 7
REMARK VINA RESULT:    -7.495      4.486      8.424
REMARK INTER + INTRA:         -18.178
REMARK INTER:                 -12.837
REMARK INTRA:                  -5.341
REMARK UNBOUND:                -4.549
REMARK SMILES O=C(CCCc1ccc(N(CCCl)CCCl)cc1)O[C@H](c1ccccc1)c1cc(O)c2c(c1O)C(=O)c1ccccc1C2=O
REMARK SMILES IDX 4 1 5 2 6 3 9 4 8 5 17 6 7 7 18 8 10 9 11 10 12 11 13 12
REMARK SMILES IDX 14 13 15 14 16 15 3 16 2 17 1 18 19 19 20 20 27 21 33 22
REMARK SMILES IDX 28 23 32 24 29 25 31 26 35 27 43 28 36 29 37 30 44 31 42 32
REMARK SMILES IDX 38 33 41 34 39 35 40 36 34 37 30 39 21 41 22 42 26 43 23 44
REMARK SMILES IDX 25 45 24 46
REMARK H PARENT 34 38 30 40
ROOT
ATOM      1  C   UNL     1      31.811  76.454  13.463  1.00  0.00     0.016 C 
ENDROOT
BRANCH   1   2
ATOM      2  C   UNL     1      32.579  76.965  14.690  1.00  0.00     0.036 C 
BRANCH   2   3
ATOM      3  C   UNL     1      32.047  76.474  16.012  1.00  0.00    -0.048 A 
ATOM      4  C   UNL     1      31.063  75.565  18.459  1.00  0.00     0.037 A 
ATOM      5  C   UNL     1      30.217  75.642  17.353  1.00  0.00     0.026 A 
ATOM      6  C   UNL     1      32.400  75.942  18.343  1.00  0.00     0.026 A 
ATOM      7  C   UNL     1      30.709  76.097  16.130  1.00  0.00     0.006 A 
ATOM      8  C   UNL     1      32.892  76.397  17.119  1.00  0.00     0.006 A 
BRANCH   4   9
ATOM      9  N   UNL     1      30.564  75.106  19.696  1.00  0.00    -0.369 N 
BRANCH   9  10
ATOM     10  C   UNL     1      31.412  74.345  20.592  1.00  0.00     0.132 C 
BRANCH  10  11
ATOM     11  C   UNL     1      31.460  74.982  21.971  1.00  0.00     0.131 C 
ATOM     12  Cl  UNL     1      33.113  75.495  22.393  1.00  0.00    -0.125 Cl
ENDBRANCH  10  11
ENDBRANCH   9  10
BRANCH   9  13
ATOM     13  C   UNL     1      29.193  75.377  20.081  1.00  0.00     0.132 C 
BRANCH  13  14
ATOM     14  C   UNL     1      28.417  74.084  20.278  1.00  0.00     0.131 C 
ATOM     15  Cl  UNL     1      27.984  73.339  18.719  1.00  0.00    -0.125 Cl
ENDBRANCH  13  14
ENDBRANCH   9  13
ENDBRANCH   4   9
ENDBRANCH   2   3
ENDBRANCH   1   2
BRANCH   1  16
ATOM     16  C   UNL     1      31.860  77.400  12.261  1.00  0.00     0.123 C 
BRANCH  16  17
ATOM     17  C   UNL     1      30.744  78.420  12.267  1.00  0.00     0.306 C 
ATOM     18  O   UNL     1      29.553  78.144  12.218  1.00  0.00    -0.252 OA
BRANCH  17  19
ATOM     19  O   UNL     1      31.277  79.669  12.363  1.00  0.00    -0.452 OA
BRANCH  19  20
ATOM     20  C   UNL     1      30.652  80.527  13.335  1.00  0.00     0.241 C 
BRANCH  20  21
ATOM     21  C   UNL     1      31.242  80.358  14.697  1.00  0.00     0.043 A 
ATOM     22  C   UNL     1      30.461  79.928  15.770  1.00  0.00     0.135 A 
ATOM     23  C   UNL     1      32.594  80.638  14.886  1.00  0.00     0.058 A 
ATOM     24  C   UNL     1      31.035  79.777  17.037  1.00  0.00     0.080 A 
ATOM     25  C   UNL     1      33.170  80.490  16.148  1.00  0.00     0.128 A 
ATOM     26  C   UNL     1      32.388  80.058  17.227  1.00  0.00     0.079 A 
ATOM     27  C   UNL     1      30.198  79.321  18.166  1.00  0.00     0.198 C 
ATOM     28  C   UNL     1      33.007  79.905  18.561  1.00  0.00     0.198 C 
ATOM     29  O   UNL     1      29.008  79.069  18.029  1.00  0.00    -0.288 OA
ATOM     30  C   UNL     1      30.816  79.166  19.499  1.00  0.00     0.034 A 
ATOM     31  O   UNL     1      34.192  80.144  18.753  1.00  0.00    -0.288 OA
ATOM     32  C   UNL     1      32.171  79.448  19.689  1.00  0.00     0.034 A 
ATOM     33  C   UNL     1      30.035  78.735  20.578  1.00  0.00     0.013 A 
ATOM     34  C   UNL     1      32.744  79.298  20.958  1.00  0.00     0.013 A 
ATOM     35  C   UNL     1      30.610  78.586  21.841  1.00  0.00     0.001 A 
ATOM     36  C   UNL     1      31.961  78.867  22.029  1.00  0.00     0.001 A 
BRANCH  22  37
ATOM     37  O   UNL     1      29.142  79.666  15.534  1.00  0.00    -0.507 OA
ATOM     38  H   UNL     1      28.847  78.738  15.348  1.00  0.00     0.293 HD
ENDBRANCH  22  37
BRANCH  25  39
ATOM     39  O   UNL     1      34.497  80.781  16.267  1.00  0.00    -0.507 OA
ATOM     40  H   UNL     1      35.132  80.084  16.569  1.00  0.00     0.293 HD
ENDBRANCH  25  39
ENDBRANCH  20  21
BRANCH  20  41
ATOM     41  C   UNL     1      30.678  81.964  12.830  1.00  0.00    -0.003 A 
ATOM     42  C   UNL     1      30.340  83.012  13.687  1.00  0.00     0.008 A 
ATOM     43  C   UNL     1      31.039  82.232  11.510  1.00  0.00     0.008 A 
ATOM     44  C   UNL     1      30.363  84.327  13.225  1.00  0.00     0.000 A 
ATOM     45  C   UNL     1      31.062  83.549  11.047  1.00  0.00     0.000 A 
ATOM     46  C   UNL     1      30.724  84.595  11.905  1.00  0.00     0.000 A 
ENDBRANCH  20  41
ENDBRANCH  19  20
ENDBRANCH  17  19
ENDBRANCH  16  17
ENDBRANCH   1  16
TORSDOF 15
ENDMDL
MODEL 8
REMARK VINA RESULT:    -7.421      1.695      2.447
REMARK INTER + INTRA:         -18.043
REMARK INTER:                 -13.291
REMARK INTRA:                  -4.752
REMARK UNBOUND:                -4.549
REMARK SMILES O=C(CCCc1ccc(N(CCCl)CCCl)cc1)O[C@H](c1ccccc1)c1cc(O)c2c(c1O)C(=O)c1ccccc1C2=O
REMARK SMILES IDX 4 1 5 2 6 3 9 4 8 5 17 6 7 7 18 8 10 9 11 10 12 11 13 12
REMARK SMILES IDX 14 13 15 14 16 15 3 16 2 17 1 18 19 19 20 20 27 21 33 22
REMARK SMILES IDX 28 23 32 24 29 25 31 26 35 27 43 28 36 29 37 30 44 31 42 32
REMARK SMILES IDX 38 33 41 34 39 35 40 36 34 37 30 39 21 41 22 42 26 43 23 44
REMARK SMILES IDX 25 45 24 46
REMARK H PARENT 34 38 30 40
ROOT
ATOM      1  C   UNL     1      33.991  74.524  15.169  1.00  0.00     0.016 C 
ENDROOT
BRANCH   1   2
ATOM      2  C   UNL     1      32.589  75.125  15.001  1.00  0.00     0.036 C 
BRANCH   2   3
ATOM      3  C   UNL     1      32.223  76.161  16.034  1.00  0.00    -0.048 A 
ATOM      4  C   UNL     1      31.547  78.077  17.945  1.00  0.00     0.037 A 
ATOM      5  C   UNL     1      32.856  77.601  17.868  1.00  0.00     0.026 A 
ATOM      6  C   UNL     1      30.576  77.595  17.067  1.00  0.00     0.026 A 
ATOM      7  C   UNL     1      33.194  76.643  16.913  1.00  0.00     0.006 A 
ATOM      8  C   UNL     1      30.915  76.637  16.112  1.00  0.00     0.006 A 
BRANCH   4   9
ATOM      9  N   UNL     1      31.205  79.045  18.912  1.00  0.00    -0.369 N 
BRANCH   9  10
ATOM     10  C   UNL     1      32.111  79.344  20.003  1.00  0.00     0.132 C 
BRANCH  10  11
ATOM     11  C   UNL     1      33.012  80.518  19.657  1.00  0.00     0.131 C 
ATOM     12  Cl  UNL     1      34.733  80.070  19.759  1.00  0.00    -0.125 Cl
ENDBRANCH  10  11
ENDBRANCH   9  10
BRANCH   9  13
ATOM     13  C   UNL     1      29.936  79.743  18.836  1.00  0.00     0.132 C 
BRANCH  13  14
ATOM     14  C   UNL     1      29.066  79.423  20.041  1.00  0.00     0.131 C 
ATOM     15  Cl  UNL     1      27.357  79.820  19.734  1.00  0.00    -0.125 Cl
ENDBRANCH  13  14
ENDBRANCH   9  13
ENDBRANCH   4   9
ENDBRANCH   2   3
ENDBRANCH   1   2
BRANCH   1  16
ATOM     16  C   UNL     1      34.316  73.415  14.166  1.00  0.00     0.123 C 
BRANCH  16  17
ATOM     17  C   UNL     1      33.951  72.037  14.671  1.00  0.00     0.306 C 
ATOM     18  O   UNL     1      34.758  71.147  14.900  1.00  0.00    -0.252 OA
BRANCH  17  19
ATOM     19  O   UNL     1      32.603  71.967  14.852  1.00  0.00    -0.452 OA
BRANCH  19  20
ATOM     20  C   UNL     1      32.182  71.325  16.069  1.00  0.00     0.241 C 
BRANCH  20  21
ATOM     21  C   UNL     1      31.577  72.291  17.035  1.00  0.00     0.043 A 
ATOM     22  C   UNL     1      32.359  72.926  18.000  1.00  0.00     0.135 A 
ATOM     23  C   UNL     1      30.211  72.553  16.961  1.00  0.00     0.058 A 
ATOM     24  C   UNL     1      31.771  73.827  18.895  1.00  0.00     0.080 A 
ATOM     25  C   UNL     1      29.621  73.450  17.851  1.00  0.00     0.128 A 
ATOM     26  C   UNL     1      30.402  74.089  18.821  1.00  0.00     0.079 A 
ATOM     27  C   UNL     1      32.608  74.494  19.913  1.00  0.00     0.198 C 
ATOM     28  C   UNL     1      29.769  75.037  19.761  1.00  0.00     0.198 C 
ATOM     29  O   UNL     1      33.811  74.282  20.002  1.00  0.00    -0.288 OA
ATOM     30  C   UNL     1      31.975  75.443  20.852  1.00  0.00     0.034 A 
ATOM     31  O   UNL     1      28.571  75.284  19.717  1.00  0.00    -0.288 OA
ATOM     32  C   UNL     1      30.606  75.704  20.779  1.00  0.00     0.034 A 
ATOM     33  C   UNL     1      32.757  76.082  21.822  1.00  0.00     0.013 A 
ATOM     34  C   UNL     1      30.018  76.606  21.675  1.00  0.00     0.013 A 
ATOM     35  C   UNL     1      32.167  76.979  22.713  1.00  0.00     0.001 A 
ATOM     36  C   UNL     1      30.801  77.240  22.639  1.00  0.00     0.001 A 
BRANCH  22  37
ATOM     37  O   UNL     1      33.693  72.637  18.032  1.00  0.00    -0.507 OA
ATOM     38  H   UNL     1      34.330  73.281  18.434  1.00  0.00     0.293 HD
ENDBRANCH  22  37
BRANCH  25  39
ATOM     39  O   UNL     1      28.279  73.662  17.727  1.00  0.00    -0.507 OA
ATOM     40  H   UNL     1      27.936  74.259  17.016  1.00  0.00     0.293 HD
ENDBRANCH  25  39
ENDBRANCH  20  21
BRANCH  20  41
ATOM     41  C   UNL     1      31.276  70.148  15.732  1.00  0.00    -0.003 A 
ATOM     42  C   UNL     1      30.685  70.061  14.471  1.00  0.00     0.008 A 
ATOM     43  C   UNL     1      31.038  69.156  16.683  1.00  0.00     0.008 A 
ATOM     44  C   UNL     1      29.856  68.984  14.162  1.00  0.00     0.000 A 
ATOM     45  C   UNL     1      30.208  68.078  16.373  1.00  0.00     0.000 A 
ATOM     46  C   UNL     1      29.618  67.992  15.113  1.00  0.00     0.000 A 
ENDBRANCH  20  41
ENDBRANCH  19  20
ENDBRANCH  17  19
ENDBRANCH  16  17
ENDBRANCH   1  16
TORSDOF 15
ENDMDL
MODEL 9
REMARK VINA RESULT:    -7.287      1.696      2.812
REMARK INTER + INTRA:         -17.799
REMARK INTER:                 -13.689
REMARK INTRA:                  -4.110
REMARK UNBOUND:                -4.549
REMARK SMILES O=C(CCCc1ccc(N(CCCl)CCCl)cc1)O[C@H](c1ccccc1)c1cc(O)c2c(c1O)C(=O)c1ccccc1C2=O
REMARK SMILES IDX 4 1 5 2 6 3 9 4 8 5 17 6 7 7 18 8 10 9 11 10 12 11 13 12
REMARK SMILES IDX 14 13 15 14 16 15 3 16 2 17 1 18 19 19 20 20 27 21 33 22
REMARK SMILES IDX 28 23 32 24 29 25 31 26 35 27 43 28 36 29 37 30 44 31 42 32
REMARK SMILES IDX 38 33 41 34 39 35 40 36 34 37 30 39 21 41 22 42 26 43 23 44
REMARK SMILES IDX 25 45 24 46
REMARK H PARENT 34 38 30 40
ROOT
ATOM      1  C   UNL     1      31.518  74.774  14.084  1.00  0.00     0.016 C 
ENDROOT
BRANCH   1   2
ATOM      2  C   UNL     1      31.265  76.269  13.841  1.00  0.00     0.036 C 
BRANCH   2   3
ATOM      3  C   UNL     1      31.200  77.105  15.093  1.00  0.00    -0.048 A 
ATOM      4  C   UNL     1      31.079  78.654  17.410  1.00  0.00     0.037 A 
ATOM      5  C   UNL     1      30.574  77.354  17.413  1.00  0.00     0.026 A 
ATOM      6  C   UNL     1      31.644  79.180  16.248  1.00  0.00     0.026 A 
ATOM      7  C   UNL     1      30.634  76.580  16.255  1.00  0.00     0.006 A 
ATOM      8  C   UNL     1      31.704  78.406  15.090  1.00  0.00     0.006 A 
BRANCH   4   9
ATOM      9  N   UNL     1      31.016  79.437  18.581  1.00  0.00    -0.369 N 
BRANCH   9  10
ATOM     10  C   UNL     1      29.892  79.312  19.488  1.00  0.00     0.132 C 
BRANCH  10  11
ATOM     11  C   UNL     1      28.733  80.190  19.043  1.00  0.00     0.131 C 
ATOM     12  Cl  UNL     1      27.312  79.973  20.094  1.00  0.00    -0.125 Cl
ENDBRANCH  10  11
ENDBRANCH   9  10
BRANCH   9  13
ATOM     13  C   UNL     1      32.068  80.388  18.886  1.00  0.00     0.132 C 
BRANCH  13  14
ATOM     14  C   UNL     1      33.260  79.695  19.526  1.00  0.00     0.131 C 
ATOM     15  Cl  UNL     1      33.416  80.124  21.248  1.00  0.00    -0.125 Cl
ENDBRANCH  13  14
ENDBRANCH   9  13
ENDBRANCH   4   9
ENDBRANCH   2   3
ENDBRANCH   1   2
BRANCH   1  16
ATOM     16  C   UNL     1      32.967  74.440  14.446  1.00  0.00     0.123 C 
BRANCH  16  17
ATOM     17  C   UNL     1      33.206  72.957  14.613  1.00  0.00     0.306 C 
ATOM     18  O   UNL     1      34.308  72.426  14.585  1.00  0.00    -0.252 OA
BRANCH  17  19
ATOM     19  O   UNL     1      32.016  72.330  14.824  1.00  0.00    -0.452 OA
BRANCH  19  20
ATOM     20  C   UNL     1      31.886  71.678  16.100  1.00  0.00     0.241 C 
BRANCH  20  21
ATOM     21  C   UNL     1      31.253  72.563  17.123  1.00  0.00     0.043 A 
ATOM     22  C   UNL     1      32.032  73.291  18.023  1.00  0.00     0.135 A 
ATOM     23  C   UNL     1      29.863  72.654  17.170  1.00  0.00     0.058 A 
ATOM     24  C   UNL     1      31.417  74.114  18.973  1.00  0.00     0.080 A 
ATOM     25  C   UNL     1      29.247  73.473  18.116  1.00  0.00     0.128 A 
ATOM     26  C   UNL     1      30.025  74.205  19.020  1.00  0.00     0.079 A 
ATOM     27  C   UNL     1      32.251  74.882  19.921  1.00  0.00     0.198 C 
ATOM     28  C   UNL     1      29.363  75.069  20.020  1.00  0.00     0.198 C 
ATOM     29  O   UNL     1      33.473  74.820  19.903  1.00  0.00    -0.288 OA
ATOM     30  C   UNL     1      31.590  75.747  20.920  1.00  0.00     0.034 A 
ATOM     31  O   UNL     1      28.145  75.166  20.081  1.00  0.00    -0.288 OA
ATOM     32  C   UNL     1      30.197  75.836  20.967  1.00  0.00     0.034 A 
ATOM     33  C   UNL     1      32.368  76.479  21.824  1.00  0.00     0.013 A 
ATOM     34  C   UNL     1      29.583  76.660  21.919  1.00  0.00     0.013 A 
ATOM     35  C   UNL     1      31.752  77.298  22.771  1.00  0.00     0.001 A 
ATOM     36  C   UNL     1      30.363  77.388  22.818  1.00  0.00     0.001 A 
BRANCH  22  37
ATOM     37  O   UNL     1      33.389  73.170  17.937  1.00  0.00    -0.507 OA
ATOM     38  H   UNL     1      33.831  73.167  17.050  1.00  0.00     0.293 HD
ENDBRANCH  22  37
BRANCH  25  39
ATOM     39  O   UNL     1      27.884  73.517  18.109  1.00  0.00    -0.507 OA
ATOM     40  H   UNL     1      27.414  74.339  18.394  1.00  0.00     0.293 HD
ENDBRANCH  25  39
ENDBRANCH  20  21
BRANCH  20  41
ATOM     41  C   UNL     1      31.170  70.346  15.915  1.00  0.00    -0.003 A 
ATOM     42  C   UNL     1      31.168  69.405  16.945  1.00  0.00     0.008 A 
ATOM     43  C   UNL     1      30.517  70.066  14.714  1.00  0.00     0.008 A 
ATOM     44  C   UNL     1      30.513  68.186  16.776  1.00  0.00     0.000 A 
ATOM     45  C   UNL     1      29.863  68.846  14.545  1.00  0.00     0.000 A 
ATOM     46  C   UNL     1      29.860  67.906  15.576  1.00  0.00     0.000 A 
ENDBRANCH  20  41
ENDBRANCH  19  20
ENDBRANCH  17  19
ENDBRANCH  16  17
ENDBRANCH   1  16
TORSDOF 15
ENDMDL
