MODEL 1
REMARK VINA RESULT:    -7.406      0.000      0.000
REMARK INTER + INTRA:         -15.752
REMARK INTER:                 -12.169
REMARK INTRA:                  -3.583
REMARK UNBOUND:                -3.583
REMARK SMILES C[C@]12CC[C@H](OC(=O)CCCc3ccc(N(CCCl)CCCl)cc3)C[C@@H]1CC[C@H]1[C@H]3CCC(=O)N[C@@]3(C)CC[C@@H]12
REMARK SMILES IDX 11 1 12 2 15 3 14 4 23 5 13 6 24 7 16 8 17 9 18 10 19 11
REMARK SMILES IDX 20 12 21 13 22 14 10 15 9 16 7 17 8 18 6 19 5 20 25 21 4 22
REMARK SMILES IDX 26 23 3 24 2 25 27 26 40 27 28 28 29 29 39 30 30 31 38 32
REMARK SMILES IDX 36 33 31 34 35 35 32 36 33 37 34 38 1 39 37 40
REMARK H PARENT 35 41
ROOT
ATOM      1  C   UNL     1      33.476  69.547  18.210  1.00  0.00     0.036 C 
ENDROOT
BRANCH   1   2
ATOM      2  C   UNL     1      33.569  70.887  17.526  1.00  0.00    -0.048 A 
ATOM      3  C   UNL     1      33.741  73.368  16.262  1.00  0.00     0.037 A 
ATOM      4  C   UNL     1      33.719  72.198  15.503  1.00  0.00     0.026 A 
ATOM      5  C   UNL     1      33.677  73.297  17.653  1.00  0.00     0.026 A 
ATOM      6  C   UNL     1      33.632  70.957  16.135  1.00  0.00     0.006 A 
ATOM      7  C   UNL     1      33.591  72.057  18.286  1.00  0.00     0.006 A 
BRANCH   3   8
ATOM      8  N   UNL     1      33.827  74.622  15.623  1.00  0.00    -0.369 N 
BRANCH   8   9
ATOM      9  C   UNL     1      33.137  74.856  14.370  1.00  0.00     0.132 C 
BRANCH   9  10
ATOM     10  C   UNL     1      31.657  75.111  14.602  1.00  0.00     0.131 C 
ATOM     11  Cl  UNL     1      30.677  73.682  14.186  1.00  0.00    -0.125 Cl
ENDBRANCH   9  10
ENDBRANCH   8   9
BRANCH   8  12
ATOM     12  C   UNL     1      34.618  75.689  16.203  1.00  0.00     0.132 C 
BRANCH  12  13
ATOM     13  C   UNL     1      33.732  76.697  16.919  1.00  0.00     0.131 C 
ATOM     14  Cl  UNL     1      34.006  76.668  18.679  1.00  0.00    -0.125 Cl
ENDBRANCH  12  13
ENDBRANCH   8  12
ENDBRANCH   3   8
ENDBRANCH   1   2
BRANCH   1  15
ATOM     15  C   UNL     1      32.723  68.472  17.413  1.00  0.00     0.016 C 
BRANCH  15  16
ATOM     16  C   UNL     1      31.371  68.084  18.017  1.00  0.00     0.123 C 
BRANCH  16  17
ATOM     17  C   UNL     1      30.205  68.409  17.112  1.00  0.00     0.306 C 
ATOM     18  O   UNL     1      30.033  67.920  16.003  1.00  0.00    -0.252 OA
BRANCH  17  19
ATOM     19  O   UNL     1      29.370  69.299  17.730  1.00  0.00    -0.462 OA
BRANCH  19  20
ATOM     20  C   UNL     1      29.975  70.510  18.172  1.00  0.00     0.176 C 
ATOM     21  C   UNL     1      29.472  70.855  19.573  1.00  0.00     0.049 C 
ATOM     22  C   UNL     1      29.663  71.608  17.161  1.00  0.00     0.046 C 
ATOM     23  C   UNL     1      29.990  72.226  20.023  1.00  0.00    -0.001 C 
ATOM     24  C   UNL     1      30.139  72.984  17.629  1.00  0.00     0.011 C 
ATOM     25  C   UNL     1      29.611  73.379  19.039  1.00  0.00    -0.026 C 
ATOM     26  C   UNL     1      29.571  72.538  21.463  1.00  0.00     0.004 C 
ATOM     27  C   UNL     1      30.318  74.700  19.543  1.00  0.00    -0.001 C 
ATOM     28  C   UNL     1      30.260  73.811  21.946  1.00  0.00     0.004 C 
ATOM     29  C   UNL     1      29.990  75.018  21.030  1.00  0.00    -0.002 C 
ATOM     30  C   UNL     1      30.024  75.925  18.656  1.00  0.00     0.007 C 
ATOM     31  C   UNL     1      30.693  76.314  21.543  1.00  0.00     0.018 C 
ATOM     32  C   UNL     1      30.713  77.194  19.153  1.00  0.00     0.029 C 
ATOM     33  C   UNL     1      30.401  77.537  20.627  1.00  0.00     0.040 C 
ATOM     34  C   UNL     1      32.216  76.161  21.720  1.00  0.00     0.016 C 
ATOM     35  N   UNL     1      31.225  78.704  20.993  1.00  0.00    -0.351 N 
ATOM     36  C   UNL     1      32.811  77.412  22.343  1.00  0.00     0.100 C 
ATOM     37  C   UNL     1      32.436  78.691  21.642  1.00  0.00     0.220 C 
ATOM     38  O   UNL     1      33.147  79.693  21.735  1.00  0.00    -0.275 OA
ATOM     39  C   UNL     1      28.075  73.572  18.945  1.00  0.00     0.012 C 
ATOM     40  C   UNL     1      28.929  77.976  20.768  1.00  0.00     0.035 C 
ATOM     41  H   UNL     1      30.852  79.630  20.735  1.00  0.00     0.164 HD
ENDBRANCH  19  20
ENDBRANCH  17  19
ENDBRANCH  16  17
ENDBRANCH  15  16
ENDBRANCH   1  15
TORSDOF 11
ENDMDL
MODEL 2
REMARK VINA RESULT:    -7.397      2.280      6.949
REMARK INTER + INTRA:         -15.736
REMARK INTER:                 -11.997
REMARK INTRA:                  -3.739
REMARK UNBOUND:                -3.583
REMARK SMILES C[C@]12CC[C@H](OC(=O)CCCc3ccc(N(CCCl)CCCl)cc3)C[C@@H]1CC[C@H]1[C@H]3CCC(=O)N[C@@]3(C)CC[C@@H]12
REMARK SMILES IDX 11 1 12 2 15 3 14 4 23 5 13 6 24 7 16 8 17 9 18 10 19 11
REMARK SMILES IDX 20 12 21 13 22 14 10 15 9 16 7 17 8 18 6 19 5 20 25 21 4 22
REMARK SMILES IDX 26 23 3 24 2 25 27 26 40 27 28 28 29 29 39 30 30 31 38 32
REMARK SMILES IDX 36 33 31 34 35 35 32 36 33 37 34 38 1 39 37 40
REMARK H PARENT 35 41
ROOT
ATOM      1  C   UNL     1      32.822  76.413  21.954  1.00  0.00     0.036 C 
ENDROOT
BRANCH   1   2
ATOM      2  C   UNL     1      32.926  76.184  20.468  1.00  0.00    -0.048 A 
ATOM      3  C   UNL     1      33.120  75.762  17.718  1.00  0.00     0.037 A 
ATOM      4  C   UNL     1      33.455  74.740  18.606  1.00  0.00     0.026 A 
ATOM      5  C   UNL     1      32.688  76.995  18.205  1.00  0.00     0.026 A 
ATOM      6  C   UNL     1      33.357  74.950  19.981  1.00  0.00     0.006 A 
ATOM      7  C   UNL     1      32.592  77.206  19.580  1.00  0.00     0.006 A 
BRANCH   3   8
ATOM      8  N   UNL     1      33.217  75.548  16.327  1.00  0.00    -0.369 N 
BRANCH   8   9
ATOM      9  C   UNL     1      34.220  74.650  15.791  1.00  0.00     0.132 C 
BRANCH   9  10
ATOM     10  C   UNL     1      33.637  73.770  14.697  1.00  0.00     0.131 C 
ATOM     11  Cl  UNL     1      34.820  72.562  14.135  1.00  0.00    -0.125 Cl
ENDBRANCH   9  10
ENDBRANCH   8   9
BRANCH   8  12
ATOM     12  C   UNL     1      32.323  76.233  15.415  1.00  0.00     0.132 C 
BRANCH  12  13
ATOM     13  C   UNL     1      33.050  77.343  14.671  1.00  0.00     0.131 C 
ATOM     14  Cl  UNL     1      32.392  78.945  15.088  1.00  0.00    -0.125 Cl
ENDBRANCH  12  13
ENDBRANCH   8  12
ENDBRANCH   3   8
ENDBRANCH   1   2
BRANCH   1  15
ATOM     15  C   UNL     1      32.050  77.679  22.354  1.00  0.00     0.016 C 
BRANCH  15  16
ATOM     16  C   UNL     1      30.675  77.400  22.966  1.00  0.00     0.123 C 
BRANCH  16  17
ATOM     17  C   UNL     1      29.550  77.502  21.961  1.00  0.00     0.306 C 
ATOM     18  O   UNL     1      29.299  78.502  21.303  1.00  0.00    -0.252 OA
BRANCH  17  19
ATOM     19  O   UNL     1      28.886  76.308  21.884  1.00  0.00    -0.462 OA
BRANCH  19  20
ATOM     20  C   UNL     1      29.581  75.256  21.221  1.00  0.00     0.176 C 
ATOM     21  C   UNL     1      29.311  75.328  19.719  1.00  0.00     0.049 C 
ATOM     22  C   UNL     1      29.140  73.926  21.823  1.00  0.00     0.046 C 
ATOM     23  C   UNL     1      29.924  74.127  18.990  1.00  0.00    -0.001 C 
ATOM     24  C   UNL     1      29.717  72.726  21.069  1.00  0.00     0.011 C 
ATOM     25  C   UNL     1      29.424  72.753  19.540  1.00  0.00    -0.026 C 
ATOM     26  C   UNL     1      29.742  74.239  17.474  1.00  0.00     0.004 C 
ATOM     27  C   UNL     1      30.231  71.612  18.804  1.00  0.00    -0.001 C 
ATOM     28  C   UNL     1      30.528  73.139  16.767  1.00  0.00     0.004 C 
ATOM     29  C   UNL     1      30.147  71.729  17.256  1.00  0.00    -0.002 C 
ATOM     30  C   UNL     1      29.831  70.193  19.255  1.00  0.00     0.007 C 
ATOM     31  C   UNL     1      30.951  70.614  16.516  1.00  0.00     0.018 C 
ATOM     32  C   UNL     1      30.619  69.100  18.537  1.00  0.00     0.029 C 
ATOM     33  C   UNL     1      30.549  69.190  16.997  1.00  0.00     0.040 C 
ATOM     34  C   UNL     1      32.479  70.778  16.629  1.00  0.00     0.016 C 
ATOM     35  N   UNL     1      31.447  68.154  16.452  1.00  0.00    -0.351 N 
ATOM     36  C   UNL     1      33.194  69.739  15.783  1.00  0.00     0.100 C 
ATOM     37  C   UNL     1      32.744  68.322  16.030  1.00  0.00     0.220 C 
ATOM     38  O   UNL     1      33.484  67.372  15.772  1.00  0.00    -0.275 OA
ATOM     39  C   UNL     1      27.896  72.574  19.336  1.00  0.00     0.012 C 
ATOM     40  C   UNL     1      29.128  68.839  16.510  1.00  0.00     0.035 C 
ATOM     41  H   UNL     1      31.060  67.202  16.379  1.00  0.00     0.164 HD
ENDBRANCH  19  20
ENDBRANCH  17  19
ENDBRANCH  16  17
ENDBRANCH  15  16
ENDBRANCH   1  15
TORSDOF 11
ENDMDL
MODEL 3
REMARK VINA RESULT:    -7.298      2.311      7.383
REMARK INTER + INTRA:         -15.574
REMARK INTER:                 -12.731
REMARK INTRA:                  -2.844
REMARK UNBOUND:                -3.583
REMARK SMILES C[C@]12CC[C@H](OC(=O)CCCc3ccc(N(CCCl)CCCl)cc3)C[C@@H]1CC[C@H]1[C@H]3CCC(=O)N[C@@]3(C)CC[C@@H]12
REMARK SMILES IDX 11 1 12 2 15 3 14 4 23 5 13 6 24 7 16 8 17 9 18 10 19 11
REMARK SMILES IDX 20 12 21 13 22 14 10 15 9 16 7 17 8 18 6 19 5 20 25 21 4 22
REMARK SMILES IDX 26 23 3 24 2 25 27 26 40 27 28 28 29 29 39 30 30 31 38 32
REMARK SMILES IDX 36 33 31 34 35 35 32 36 33 37 34 38 1 39 37 40
REMARK H PARENT 35 41
ROOT
ATOM      1  C   UNL     1      32.122  78.953  20.242  1.00  0.00     0.036 C 
ENDROOT
BRANCH   1   2
ATOM      2  C   UNL     1      32.303  78.206  18.946  1.00  0.00    -0.048 A 
ATOM      3  C   UNL     1      32.640  76.824  16.547  1.00  0.00     0.037 A 
ATOM      4  C   UNL     1      31.377  76.905  17.134  1.00  0.00     0.026 A 
ATOM      5  C   UNL     1      33.734  77.435  17.159  1.00  0.00     0.026 A 
ATOM      6  C   UNL     1      31.209  77.596  18.333  1.00  0.00     0.006 A 
ATOM      7  C   UNL     1      33.566  78.126  18.359  1.00  0.00     0.006 A 
BRANCH   3   8
ATOM      8  N   UNL     1      32.810  76.125  15.333  1.00  0.00    -0.369 N 
BRANCH   8   9
ATOM      9  C   UNL     1      33.992  75.317  15.111  1.00  0.00     0.132 C 
BRANCH   9  10
ATOM     10  C   UNL     1      33.737  74.257  14.052  1.00  0.00     0.131 C 
ATOM     11  Cl  UNL     1      34.674  72.776  14.374  1.00  0.00    -0.125 Cl
ENDBRANCH   9  10
ENDBRANCH   8   9
BRANCH   8  12
ATOM     12  C   UNL     1      31.811  76.217  14.287  1.00  0.00     0.132 C 
BRANCH  12  13
ATOM     13  C   UNL     1      31.975  77.501  13.488  1.00  0.00     0.131 C 
ATOM     14  Cl  UNL     1      30.747  77.630  12.205  1.00  0.00    -0.125 Cl
ENDBRANCH  12  13
ENDBRANCH   8  12
ENDBRANCH   3   8
ENDBRANCH   1   2
BRANCH   1  15
ATOM     15  C   UNL     1      31.690  78.081  21.429  1.00  0.00     0.016 C 
BRANCH  15  16
ATOM     16  C   UNL     1      32.853  77.597  22.299  1.00  0.00     0.123 C 
BRANCH  16  17
ATOM     17  C   UNL     1      32.793  76.115  22.593  1.00  0.00     0.306 C 
ATOM     18  O   UNL     1      33.712  75.468  23.077  1.00  0.00    -0.252 OA
BRANCH  17  19
ATOM     19  O   UNL     1      31.558  75.625  22.265  1.00  0.00    -0.462 OA
BRANCH  19  20
ATOM     20  C   UNL     1      31.551  74.384  21.568  1.00  0.00     0.176 C 
ATOM     21  C   UNL     1      32.147  74.574  20.174  1.00  0.00     0.049 C 
ATOM     22  C   UNL     1      30.119  73.862  21.515  1.00  0.00     0.046 C 
ATOM     23  C   UNL     1      32.023  73.293  19.341  1.00  0.00    -0.001 C 
ATOM     24  C   UNL     1      29.986  72.609  20.648  1.00  0.00     0.011 C 
ATOM     25  C   UNL     1      30.552  72.786  19.209  1.00  0.00    -0.026 C 
ATOM     26  C   UNL     1      32.704  73.443  17.977  1.00  0.00     0.004 C 
ATOM     27  C   UNL     1      30.582  71.398  18.454  1.00  0.00    -0.001 C 
ATOM     28  C   UNL     1      32.735  72.100  17.255  1.00  0.00     0.004 C 
ATOM     29  C   UNL     1      31.337  71.477  17.097  1.00  0.00    -0.002 C 
ATOM     30  C   UNL     1      29.184  70.782  18.254  1.00  0.00     0.007 C 
ATOM     31  C   UNL     1      31.384  70.108  16.347  1.00  0.00     0.018 C 
ATOM     32  C   UNL     1      29.227  69.441  17.525  1.00  0.00     0.029 C 
ATOM     33  C   UNL     1      29.967  69.492  16.169  1.00  0.00     0.040 C 
ATOM     34  C   UNL     1      32.312  69.073  17.011  1.00  0.00     0.016 C 
ATOM     35  N   UNL     1      30.031  68.113  15.649  1.00  0.00    -0.351 N 
ATOM     36  C   UNL     1      32.410  67.818  16.162  1.00  0.00     0.100 C 
ATOM     37  C   UNL     1      31.080  67.233  15.765  1.00  0.00     0.220 C 
ATOM     38  O   UNL     1      30.978  66.041  15.473  1.00  0.00    -0.275 OA
ATOM     39  C   UNL     1      29.657  73.807  18.459  1.00  0.00     0.012 C 
ATOM     40  C   UNL     1      29.148  70.309  15.149  1.00  0.00     0.035 C 
ATOM     41  H   UNL     1      29.200  67.773  15.142  1.00  0.00     0.164 HD
ENDBRANCH  19  20
ENDBRANCH  17  19
ENDBRANCH  16  17
ENDBRANCH  15  16
ENDBRANCH   1  15
TORSDOF 11
ENDMDL
MODEL 4
REMARK VINA RESULT:    -7.196      2.318      7.244
REMARK INTER + INTRA:         -15.407
REMARK INTER:                 -12.897
REMARK INTRA:                  -2.510
REMARK UNBOUND:                -3.583
REMARK SMILES C[C@]12CC[C@H](OC(=O)CCCc3ccc(N(CCCl)CCCl)cc3)C[C@@H]1CC[C@H]1[C@H]3CCC(=O)N[C@@]3(C)CC[C@@H]12
REMARK SMILES IDX 11 1 12 2 15 3 14 4 23 5 13 6 24 7 16 8 17 9 18 10 19 11
REMARK SMILES IDX 20 12 21 13 22 14 10 15 9 16 7 17 8 18 6 19 5 20 25 21 4 22
REMARK SMILES IDX 26 23 3 24 2 25 27 26 40 27 28 28 29 29 39 30 30 31 38 32
REMARK SMILES IDX 36 33 31 34 35 35 32 36 33 37 34 38 1 39 37 40
REMARK H PARENT 35 41
ROOT
ATOM      1  C   UNL     1      32.183  79.100  20.616  1.00  0.00     0.036 C 
ENDROOT
BRANCH   1   2
ATOM      2  C   UNL     1      32.135  78.247  19.375  1.00  0.00    -0.048 A 
ATOM      3  C   UNL     1      32.044  76.669  17.077  1.00  0.00     0.037 A 
ATOM      4  C   UNL     1      33.269  76.950  17.683  1.00  0.00     0.026 A 
ATOM      5  C   UNL     1      30.865  77.177  17.621  1.00  0.00     0.026 A 
ATOM      6  C   UNL     1      33.314  77.738  18.832  1.00  0.00     0.006 A 
ATOM      7  C   UNL     1      30.910  77.966  18.770  1.00  0.00     0.006 A 
BRANCH   3   8
ATOM      8  N   UNL     1      31.999  75.870  15.916  1.00  0.00    -0.369 N 
BRANCH   8   9
ATOM      9  C   UNL     1      30.814  75.853  15.082  1.00  0.00     0.132 C 
BRANCH   9  10
ATOM     10  C   UNL     1      31.025  76.671  13.818  1.00  0.00     0.131 C 
ATOM     11  Cl  UNL     1      31.264  78.396  14.192  1.00  0.00    -0.125 Cl
ENDBRANCH   9  10
ENDBRANCH   8   9
BRANCH   8  12
ATOM     12  C   UNL     1      33.133  75.045  15.548  1.00  0.00     0.132 C 
BRANCH  12  13
ATOM     13  C   UNL     1      32.675  73.750  14.894  1.00  0.00     0.131 C 
ATOM     14  Cl  UNL     1      34.020  72.595  14.726  1.00  0.00    -0.125 Cl
ENDBRANCH  12  13
ENDBRANCH   8  12
ENDBRANCH   3   8
ENDBRANCH   1   2
BRANCH   1  15
ATOM     15  C   UNL     1      31.037  78.853  21.609  1.00  0.00     0.016 C 
BRANCH  15  16
ATOM     16  C   UNL     1      31.240  77.623  22.496  1.00  0.00     0.123 C 
BRANCH  16  17
ATOM     17  C   UNL     1      30.185  76.561  22.284  1.00  0.00     0.306 C 
ATOM     18  O   UNL     1      29.194  76.701  21.580  1.00  0.00    -0.252 OA
BRANCH  17  19
ATOM     19  O   UNL     1      30.523  75.425  22.968  1.00  0.00    -0.462 OA
BRANCH  19  20
ATOM     20  C   UNL     1      30.591  74.233  22.191  1.00  0.00     0.176 C 
ATOM     21  C   UNL     1      31.474  74.468  20.966  1.00  0.00     0.049 C 
ATOM     22  C   UNL     1      29.174  73.820  21.809  1.00  0.00     0.046 C 
ATOM     23  C   UNL     1      31.454  73.254  20.031  1.00  0.00    -0.001 C 
ATOM     24  C   UNL     1      29.154  72.636  20.840  1.00  0.00     0.011 C 
ATOM     25  C   UNL     1      30.016  72.862  19.564  1.00  0.00    -0.026 C 
ATOM     26  C   UNL     1      32.411  73.440  18.850  1.00  0.00     0.004 C 
ATOM     27  C   UNL     1      30.123  71.526  18.727  1.00  0.00    -0.001 C 
ATOM     28  C   UNL     1      32.516  72.146  18.048  1.00  0.00     0.004 C 
ATOM     29  C   UNL     1      31.147  71.636  17.562  1.00  0.00    -0.002 C 
ATOM     30  C   UNL     1      28.765  71.024  18.200  1.00  0.00     0.007 C 
ATOM     31  C   UNL     1      31.272  70.317  16.736  1.00  0.00     0.018 C 
ATOM     32  C   UNL     1      28.883  69.732  17.395  1.00  0.00     0.029 C 
ATOM     33  C   UNL     1      29.890  69.815  16.227  1.00  0.00     0.040 C 
ATOM     34  C   UNL     1      31.981  69.179  17.494  1.00  0.00     0.016 C 
ATOM     35  N   UNL     1      29.983  68.471  15.627  1.00  0.00    -0.351 N 
ATOM     36  C   UNL     1      32.183  67.976  16.590  1.00  0.00     0.100 C 
ATOM     37  C   UNL     1      30.933  67.513  15.887  1.00  0.00     0.220 C 
ATOM     38  O   UNL     1      30.827  66.351  15.491  1.00  0.00    -0.275 OA
ATOM     39  C   UNL     1      29.356  73.990  18.727  1.00  0.00     0.012 C 
ATOM     40  C   UNL     1      29.350  70.751  15.126  1.00  0.00     0.035 C 
ATOM     41  H   UNL     1      29.258  68.224  14.937  1.00  0.00     0.164 HD
ENDBRANCH  19  20
ENDBRANCH  17  19
ENDBRANCH  16  17
ENDBRANCH  15  16
ENDBRANCH   1  15
TORSDOF 11
ENDMDL
MODEL 5
REMARK VINA RESULT:    -7.175      3.515      7.521
REMARK INTER + INTRA:         -15.372
REMARK INTER:                 -13.600
REMARK INTRA:                  -1.772
REMARK UNBOUND:                -3.583
REMARK SMILES C[C@]12CC[C@H](OC(=O)CCCc3ccc(N(CCCl)CCCl)cc3)C[C@@H]1CC[C@H]1[C@H]3CCC(=O)N[C@@]3(C)CC[C@@H]12
REMARK SMILES IDX 11 1 12 2 15 3 14 4 23 5 13 6 24 7 16 8 17 9 18 10 19 11
REMARK SMILES IDX 20 12 21 13 22 14 10 15 9 16 7 17 8 18 6 19 5 20 25 21 4 22
REMARK SMILES IDX 26 23 3 24 2 25 27 26 40 27 28 28 29 29 39 30 30 31 38 32
REMARK SMILES IDX 36 33 31 34 35 35 32 36 33 37 34 38 1 39 37 40
REMARK H PARENT 35 41
ROOT
ATOM      1  C   UNL     1      30.241  74.080  22.537  1.00  0.00     0.036 C 
ENDROOT
BRANCH   1   2
ATOM      2  C   UNL     1      30.330  73.320  21.239  1.00  0.00    -0.048 A 
ATOM      3  C   UNL     1      30.492  71.911  18.836  1.00  0.00     0.037 A 
ATOM      4  C   UNL     1      31.442  72.888  19.138  1.00  0.00     0.026 A 
ATOM      5  C   UNL     1      29.462  71.639  19.736  1.00  0.00     0.026 A 
ATOM      6  C   UNL     1      31.361  73.592  20.340  1.00  0.00     0.006 A 
ATOM      7  C   UNL     1      29.380  72.343  20.937  1.00  0.00     0.006 A 
BRANCH   3   8
ATOM      8  N   UNL     1      30.576  71.199  17.622  1.00  0.00    -0.369 N 
BRANCH   8   9
ATOM      9  C   UNL     1      29.743  70.035  17.395  1.00  0.00     0.132 C 
BRANCH   9  10
ATOM     10  C   UNL     1      30.589  68.784  17.225  1.00  0.00     0.131 C 
ATOM     11  Cl  UNL     1      31.455  68.376  18.727  1.00  0.00    -0.125 Cl
ENDBRANCH   9  10
ENDBRANCH   8   9
BRANCH   8  12
ATOM     12  C   UNL     1      31.505  71.615  16.590  1.00  0.00     0.132 C 
BRANCH  12  13
ATOM     13  C   UNL     1      30.820  72.508  15.566  1.00  0.00     0.131 C 
ATOM     14  Cl  UNL     1      29.778  71.564  14.473  1.00  0.00    -0.125 Cl
ENDBRANCH  12  13
ENDBRANCH   8  12
ENDBRANCH   3   8
ENDBRANCH   1   2
BRANCH   1  15
ATOM     15  C   UNL     1      31.382  75.080  22.773  1.00  0.00     0.016 C 
BRANCH  15  16
ATOM     16  C   UNL     1      30.971  76.543  22.596  1.00  0.00     0.123 C 
BRANCH  16  17
ATOM     17  C   UNL     1      32.150  77.465  22.379  1.00  0.00     0.306 C 
ATOM     18  O   UNL     1      33.306  77.191  22.673  1.00  0.00    -0.252 OA
BRANCH  17  19
ATOM     19  O   UNL     1      31.731  78.624  21.785  1.00  0.00    -0.462 OA
BRANCH  19  20
ATOM     20  C   UNL     1      31.800  78.649  20.363  1.00  0.00     0.176 C 
ATOM     21  C   UNL     1      31.108  77.411  19.794  1.00  0.00     0.049 C 
ATOM     22  C   UNL     1      33.265  78.731  19.947  1.00  0.00     0.046 C 
ATOM     23  C   UNL     1      31.288  77.328  18.273  1.00  0.00    -0.001 C 
ATOM     24  C   UNL     1      33.450  78.604  18.434  1.00  0.00     0.011 C 
ATOM     25  C   UNL     1      32.786  77.331  17.831  1.00  0.00    -0.026 C 
ATOM     26  C   UNL     1      30.517  76.144  17.682  1.00  0.00     0.004 C 
ATOM     27  C   UNL     1      32.827  77.383  16.252  1.00  0.00    -0.001 C 
ATOM     28  C   UNL     1      30.554  76.202  16.158  1.00  0.00     0.004 C 
ATOM     29  C   UNL     1      31.988  76.248  15.599  1.00  0.00    -0.002 C 
ATOM     30  C   UNL     1      34.257  77.390  15.679  1.00  0.00     0.007 C 
ATOM     31  C   UNL     1      32.011  76.296  14.039  1.00  0.00     0.018 C 
ATOM     32  C   UNL     1      34.282  77.441  14.153  1.00  0.00     0.029 C 
ATOM     33  C   UNL     1      33.461  76.321  13.478  1.00  0.00     0.040 C 
ATOM     34  C   UNL     1      31.214  77.474  13.447  1.00  0.00     0.016 C 
ATOM     35  N   UNL     1      33.481  76.573  12.024  1.00  0.00    -0.351 N 
ATOM     36  C   UNL     1      31.170  77.385  11.932  1.00  0.00     0.100 C 
ATOM     37  C   UNL     1      32.518  77.213  11.282  1.00  0.00     0.220 C 
ATOM     38  O   UNL     1      32.702  77.553  10.113  1.00  0.00    -0.275 OA
ATOM     39  C   UNL     1      33.546  76.089  18.366  1.00  0.00     0.012 C 
ATOM     40  C   UNL     1      34.146  74.956  13.696  1.00  0.00     0.035 C 
ATOM     41  H   UNL     1      34.305  76.230  11.509  1.00  0.00     0.164 HD
ENDBRANCH  19  20
ENDBRANCH  17  19
ENDBRANCH  16  17
ENDBRANCH  15  16
ENDBRANCH   1  15
TORSDOF 11
ENDMDL
MODEL 6
REMARK VINA RESULT:    -7.092      3.983      7.326
REMARK INTER + INTRA:         -15.235
REMARK INTER:                 -12.225
REMARK INTRA:                  -3.010
REMARK UNBOUND:                -3.583
REMARK SMILES C[C@]12CC[C@H](OC(=O)CCCc3ccc(N(CCCl)CCCl)cc3)C[C@@H]1CC[C@H]1[C@H]3CCC(=O)N[C@@]3(C)CC[C@@H]12
REMARK SMILES IDX 11 1 12 2 15 3 14 4 23 5 13 6 24 7 16 8 17 9 18 10 19 11
REMARK SMILES IDX 20 12 21 13 22 14 10 15 9 16 7 17 8 18 6 19 5 20 25 21 4 22
REMARK SMILES IDX 26 23 3 24 2 25 27 26 40 27 28 28 29 29 39 30 30 31 38 32
REMARK SMILES IDX 36 33 31 34 35 35 32 36 33 37 34 38 1 39 37 40
REMARK H PARENT 35 41
ROOT
ATOM      1  C   UNL     1      31.041  80.423  13.108  1.00  0.00     0.036 C 
ENDROOT
BRANCH   1   2
ATOM      2  C   UNL     1      30.610  80.174  14.530  1.00  0.00    -0.048 A 
ATOM      3  C   UNL     1      29.814  79.714  17.163  1.00  0.00     0.037 A 
ATOM      4  C   UNL     1      29.534  78.770  16.175  1.00  0.00     0.026 A 
ATOM      5  C   UNL     1      30.492  80.887  16.835  1.00  0.00     0.026 A 
ATOM      6  C   UNL     1      29.933  79.000  14.858  1.00  0.00     0.006 A 
ATOM      7  C   UNL     1      30.890  81.117  15.519  1.00  0.00     0.006 A 
BRANCH   3   8
ATOM      8  N   UNL     1      29.411  79.480  18.495  1.00  0.00    -0.369 N 
BRANCH   8   9
ATOM      9  C   UNL     1      29.983  78.386  19.253  1.00  0.00     0.132 C 
BRANCH   9  10
ATOM     10  C   UNL     1      31.484  78.563  19.419  1.00  0.00     0.131 C 
ATOM     11  Cl  UNL     1      32.389  77.592  18.231  1.00  0.00    -0.125 Cl
ENDBRANCH   9  10
ENDBRANCH   8   9
BRANCH   8  12
ATOM     12  C   UNL     1      28.410  80.323  19.117  1.00  0.00     0.132 C 
BRANCH  12  13
ATOM     13  C   UNL     1      27.015  79.750  18.918  1.00  0.00     0.131 C 
ATOM     14  Cl  UNL     1      26.219  80.456  17.490  1.00  0.00    -0.125 Cl
ENDBRANCH  12  13
ENDBRANCH   8  12
ENDBRANCH   3   8
ENDBRANCH   1   2
BRANCH   1  15
ATOM     15  C   UNL     1      31.119  79.164  12.232  1.00  0.00     0.016 C 
BRANCH  15  16
ATOM     16  C   UNL     1      32.483  78.470  12.263  1.00  0.00     0.123 C 
BRANCH  16  17
ATOM     17  C   UNL     1      32.503  77.174  11.484  1.00  0.00     0.306 C 
ATOM     18  O   UNL     1      32.072  77.044  10.347  1.00  0.00    -0.252 OA
BRANCH  17  19
ATOM     19  O   UNL     1      33.098  76.193  12.230  1.00  0.00    -0.462 OA
BRANCH  19  20
ATOM     20  C   UNL     1      32.691  76.120  13.592  1.00  0.00     0.176 C 
ATOM     21  C   UNL     1      33.627  75.187  14.359  1.00  0.00     0.049 C 
ATOM     22  C   UNL     1      31.241  75.650  13.643  1.00  0.00     0.046 C 
ATOM     23  C   UNL     1      33.134  74.970  15.795  1.00  0.00    -0.001 C 
ATOM     24  C   UNL     1      30.762  75.390  15.073  1.00  0.00     0.011 C 
ATOM     25  C   UNL     1      31.677  74.413  15.867  1.00  0.00    -0.026 C 
ATOM     26  C   UNL     1      34.116  74.114  16.601  1.00  0.00     0.004 C 
ATOM     27  C   UNL     1      31.247  74.368  17.387  1.00  0.00    -0.001 C 
ATOM     28  C   UNL     1      33.701  74.079  18.068  1.00  0.00     0.004 C 
ATOM     29  C   UNL     1      32.259  73.579  18.266  1.00  0.00    -0.002 C 
ATOM     30  C   UNL     1      29.819  73.832  17.602  1.00  0.00     0.007 C 
ATOM     31  C   UNL     1      31.852  73.539  19.773  1.00  0.00     0.018 C 
ATOM     32  C   UNL     1      29.416  73.795  19.075  1.00  0.00     0.029 C 
ATOM     33  C   UNL     1      30.401  73.013  19.971  1.00  0.00     0.040 C 
ATOM     34  C   UNL     1      32.006  74.894  20.490  1.00  0.00     0.016 C 
ATOM     35  N   UNL     1      29.949  73.168  21.366  1.00  0.00    -0.351 N 
ATOM     36  C   UNL     1      31.719  74.751  21.974  1.00  0.00     0.100 C 
ATOM     37  C   UNL     1      30.411  74.074  22.290  1.00  0.00     0.220 C 
ATOM     38  O   UNL     1      29.846  74.267  23.367  1.00  0.00    -0.275 OA
ATOM     39  C   UNL     1      31.565  73.008  15.217  1.00  0.00     0.012 C 
ATOM     40  C   UNL     1      30.327  71.506  19.650  1.00  0.00     0.035 C 
ATOM     41  H   UNL     1      29.206  72.527  21.683  1.00  0.00     0.164 HD
ENDBRANCH  19  20
ENDBRANCH  17  19
ENDBRANCH  16  17
ENDBRANCH  15  16
ENDBRANCH   1  15
TORSDOF 11
ENDMDL
MODEL 7
REMARK VINA RESULT:    -7.019      3.328      7.067
REMARK INTER + INTRA:         -15.115
REMARK INTER:                 -10.979
REMARK INTRA:                  -4.137
REMARK UNBOUND:                -3.583
REMARK SMILES C[C@]12CC[C@H](OC(=O)CCCc3ccc(N(CCCl)CCCl)cc3)C[C@@H]1CC[C@H]1[C@H]3CCC(=O)N[C@@]3(C)CC[C@@H]12
REMARK SMILES IDX 11 1 12 2 15 3 14 4 23 5 13 6 24 7 16 8 17 9 18 10 19 11
REMARK SMILES IDX 20 12 21 13 22 14 10 15 9 16 7 17 8 18 6 19 5 20 25 21 4 22
REMARK SMILES IDX 26 23 3 24 2 25 27 26 40 27 28 28 29 29 39 30 30 31 38 32
REMARK SMILES IDX 36 33 31 34 35 35 32 36 33 37 34 38 1 39 37 40
REMARK H PARENT 35 41
ROOT
ATOM      1  C   UNL     1      30.282  78.786  13.045  1.00  0.00     0.036 C 
ENDROOT
BRANCH   1   2
ATOM      2  C   UNL     1      30.550  77.543  13.854  1.00  0.00    -0.048 A 
ATOM      3  C   UNL     1      31.046  75.240  15.348  1.00  0.00     0.037 A 
ATOM      4  C   UNL     1      30.209  76.235  15.856  1.00  0.00     0.026 A 
ATOM      5  C   UNL     1      31.634  75.398  14.094  1.00  0.00     0.026 A 
ATOM      6  C   UNL     1      29.961  77.386  15.108  1.00  0.00     0.006 A 
ATOM      7  C   UNL     1      31.386  76.548  13.346  1.00  0.00     0.006 A 
BRANCH   3   8
ATOM      8  N   UNL     1      31.296  74.076  16.104  1.00  0.00    -0.369 N 
BRANCH   8   9
ATOM      9  C   UNL     1      30.578  73.835  17.340  1.00  0.00     0.132 C 
BRANCH   9  10
ATOM     10  C   UNL     1      30.320  72.350  17.541  1.00  0.00     0.131 C 
ATOM     11  Cl  UNL     1      30.221  71.936  19.270  1.00  0.00    -0.125 Cl
ENDBRANCH   9  10
ENDBRANCH   8   9
BRANCH   8  12
ATOM     12  C   UNL     1      32.283  73.112  15.662  1.00  0.00     0.132 C 
BRANCH  12  13
ATOM     13  C   UNL     1      33.650  73.422  16.253  1.00  0.00     0.131 C 
ATOM     14  Cl  UNL     1      33.860  72.656  17.847  1.00  0.00    -0.125 Cl
ENDBRANCH  12  13
ENDBRANCH   8  12
ENDBRANCH   3   8
ENDBRANCH   1   2
BRANCH   1  15
ATOM     15  C   UNL     1      31.477  79.280  12.216  1.00  0.00     0.016 C 
BRANCH  15  16
ATOM     16  C   UNL     1      32.305  80.367  12.906  1.00  0.00     0.123 C 
BRANCH  16  17
ATOM     17  C   UNL     1      33.694  79.902  13.281  1.00  0.00     0.306 C 
ATOM     18  O   UNL     1      34.520  79.478  12.483  1.00  0.00    -0.252 OA
BRANCH  17  19
ATOM     19  O   UNL     1      33.888  80.055  14.626  1.00  0.00    -0.462 OA
BRANCH  19  20
ATOM     20  C   UNL     1      33.207  79.123  15.459  1.00  0.00     0.176 C 
ATOM     21  C   UNL     1      32.581  79.855  16.645  1.00  0.00     0.049 C 
ATOM     22  C   UNL     1      34.197  78.051  15.902  1.00  0.00     0.046 C 
ATOM     23  C   UNL     1      31.963  78.865  17.640  1.00  0.00    -0.001 C 
ATOM     24  C   UNL     1      33.596  77.090  16.929  1.00  0.00     0.011 C 
ATOM     25  C   UNL     1      32.982  77.807  18.167  1.00  0.00    -0.026 C 
ATOM     26  C   UNL     1      31.248  79.593  18.782  1.00  0.00     0.004 C 
ATOM     27  C   UNL     1      32.192  76.775  19.066  1.00  0.00    -0.001 C 
ATOM     28  C   UNL     1      30.481  78.594  19.644  1.00  0.00     0.004 C 
ATOM     29  C   UNL     1      31.379  77.472  20.194  1.00  0.00    -0.002 C 
ATOM     30  C   UNL     1      33.087  75.668  19.656  1.00  0.00     0.007 C 
ATOM     31  C   UNL     1      30.583  76.464  21.081  1.00  0.00     0.018 C 
ATOM     32  C   UNL     1      32.310  74.678  20.521  1.00  0.00     0.029 C 
ATOM     33  C   UNL     1      31.498  75.343  21.654  1.00  0.00     0.040 C 
ATOM     34  C   UNL     1      29.382  75.823  20.361  1.00  0.00     0.016 C 
ATOM     35  N   UNL     1      30.715  74.283  22.317  1.00  0.00    -0.351 N 
ATOM     36  C   UNL     1      28.580  74.958  21.318  1.00  0.00     0.100 C 
ATOM     37  C   UNL     1      29.403  73.951  22.079  1.00  0.00     0.220 C 
ATOM     38  O   UNL     1      28.886  72.931  22.535  1.00  0.00    -0.275 OA
ATOM     39  C   UNL     1      34.137  78.468  18.965  1.00  0.00     0.012 C 
ATOM     40  C   UNL     1      32.451  75.919  22.722  1.00  0.00     0.035 C 
ATOM     41  H   UNL     1      31.204  73.733  23.039  1.00  0.00     0.164 HD
ENDBRANCH  19  20
ENDBRANCH  17  19
ENDBRANCH  16  17
ENDBRANCH  15  16
ENDBRANCH   1  15
TORSDOF 11
ENDMDL
MODEL 8
REMARK VINA RESULT:    -6.853      3.503      7.375
REMARK INTER + INTRA:         -14.843
REMARK INTER:                 -10.890
REMARK INTRA:                  -3.954
REMARK UNBOUND:                -3.583
REMARK SMILES C[C@]12CC[C@H](OC(=O)CCCc3ccc(N(CCCl)CCCl)cc3)C[C@@H]1CC[C@H]1[C@H]3CCC(=O)N[C@@]3(C)CC[C@@H]12
REMARK SMILES IDX 11 1 12 2 15 3 14 4 23 5 13 6 24 7 16 8 17 9 18 10 19 11
REMARK SMILES IDX 20 12 21 13 22 14 10 15 9 16 7 17 8 18 6 19 5 20 25 21 4 22
REMARK SMILES IDX 26 23 3 24 2 25 27 26 40 27 28 28 29 29 39 30 30 31 38 32
REMARK SMILES IDX 36 33 31 34 35 35 32 36 33 37 34 38 1 39 37 40
REMARK H PARENT 35 41
ROOT
ATOM      1  C   UNL     1      30.286  78.385  12.669  1.00  0.00     0.036 C 
ENDROOT
BRANCH   1   2
ATOM      2  C   UNL     1      30.640  77.366  13.721  1.00  0.00    -0.048 A 
ATOM      3  C   UNL     1      31.294  75.480  15.669  1.00  0.00     0.037 A 
ATOM      4  C   UNL     1      31.942  75.460  14.434  1.00  0.00     0.026 A 
ATOM      5  C   UNL     1      30.320  76.443  15.930  1.00  0.00     0.026 A 
ATOM      6  C   UNL     1      31.615  76.404  13.460  1.00  0.00     0.006 A 
ATOM      7  C   UNL     1      29.992  77.386  14.956  1.00  0.00     0.006 A 
BRANCH   3   8
ATOM      8  N   UNL     1      31.625  74.526  16.654  1.00  0.00    -0.369 N 
BRANCH   8   9
ATOM      9  C   UNL     1      32.825  73.725  16.525  1.00  0.00     0.132 C 
BRANCH   9  10
ATOM     10  C   UNL     1      33.884  74.161  17.525  1.00  0.00     0.131 C 
ATOM     11  Cl  UNL     1      34.654  75.690  17.032  1.00  0.00    -0.125 Cl
ENDBRANCH   9  10
ENDBRANCH   8   9
BRANCH   8  12
ATOM     12  C   UNL     1      30.763  74.326  17.801  1.00  0.00     0.132 C 
BRANCH  12  13
ATOM     13  C   UNL     1      30.325  72.873  17.907  1.00  0.00     0.131 C 
ATOM     14  Cl  UNL     1      30.722  72.189  19.502  1.00  0.00    -0.125 Cl
ENDBRANCH  12  13
ENDBRANCH   8  12
ENDBRANCH   3   8
ENDBRANCH   1   2
BRANCH   1  15
ATOM     15  C   UNL     1      31.459  79.263  12.207  1.00  0.00     0.016 C 
BRANCH  15  16
ATOM     16  C   UNL     1      31.296  80.746  12.547  1.00  0.00     0.123 C 
BRANCH  16  17
ATOM     17  C   UNL     1      32.491  81.320  13.274  1.00  0.00     0.306 C 
ATOM     18  O   UNL     1      33.593  81.488  12.768  1.00  0.00    -0.252 OA
BRANCH  17  19
ATOM     19  O   UNL     1      32.144  81.644  14.557  1.00  0.00    -0.462 OA
BRANCH  19  20
ATOM     20  C   UNL     1      31.781  80.550  15.393  1.00  0.00     0.176 C 
ATOM     21  C   UNL     1      30.879  81.045  16.523  1.00  0.00     0.049 C 
ATOM     22  C   UNL     1      33.054  79.894  15.918  1.00  0.00     0.046 C 
ATOM     23  C   UNL     1      30.586  79.922  17.526  1.00  0.00    -0.001 C 
ATOM     24  C   UNL     1      32.764  78.804  16.952  1.00  0.00     0.011 C 
ATOM     25  C   UNL     1      31.877  79.290  18.135  1.00  0.00    -0.026 C 
ATOM     26  C   UNL     1      29.605  80.382  18.609  1.00  0.00     0.004 C 
ATOM     27  C   UNL     1      31.442  78.067  19.036  1.00  0.00    -0.001 C 
ATOM     28  C   UNL     1      29.183  79.197  19.472  1.00  0.00     0.004 C 
ATOM     29  C   UNL     1      30.381  78.463  20.102  1.00  0.00    -0.002 C 
ATOM     30  C   UNL     1      32.630  77.348  19.705  1.00  0.00     0.007 C 
ATOM     31  C   UNL     1      29.933  77.260  20.990  1.00  0.00     0.018 C 
ATOM     32  C   UNL     1      32.195  76.168  20.571  1.00  0.00     0.029 C 
ATOM     33  C   UNL     1      31.145  76.534  21.642  1.00  0.00     0.040 C 
ATOM     34  C   UNL     1      29.064  76.231  20.242  1.00  0.00     0.016 C 
ATOM     35  N   UNL     1      30.739  75.283  22.310  1.00  0.00    -0.351 N 
ATOM     36  C   UNL     1      28.559  75.162  21.195  1.00  0.00     0.100 C 
ATOM     37  C   UNL     1      29.635  74.515  22.027  1.00  0.00     0.220 C 
ATOM     38  O   UNL     1      29.476  73.388  22.497  1.00  0.00    -0.275 OA
ATOM     39  C   UNL     1      32.690  80.324  18.958  1.00  0.00     0.012 C 
ATOM     40  C   UNL     1      31.784  77.424  22.729  1.00  0.00     0.035 C 
ATOM     41  H   UNL     1      31.347  74.949  23.071  1.00  0.00     0.164 HD
ENDBRANCH  19  20
ENDBRANCH  17  19
ENDBRANCH  16  17
ENDBRANCH  15  16
ENDBRANCH   1  15
TORSDOF 11
ENDMDL
MODEL 9
REMARK VINA RESULT:    -6.707      2.297      7.175
REMARK INTER + INTRA:         -14.603
REMARK INTER:                 -12.183
REMARK INTRA:                  -2.420
REMARK UNBOUND:                -3.583
REMARK SMILES C[C@]12CC[C@H](OC(=O)CCCc3ccc(N(CCCl)CCCl)cc3)C[C@@H]1CC[C@H]1[C@H]3CCC(=O)N[C@@]3(C)CC[C@@H]12
REMARK SMILES IDX 11 1 12 2 15 3 14 4 23 5 13 6 24 7 16 8 17 9 18 10 19 11
REMARK SMILES IDX 20 12 21 13 22 14 10 15 9 16 7 17 8 18 6 19 5 20 25 21 4 22
REMARK SMILES IDX 26 23 3 24 2 25 27 26 40 27 28 28 29 29 39 30 30 31 38 32
REMARK SMILES IDX 36 33 31 34 35 35 32 36 33 37 34 38 1 39 37 40
REMARK H PARENT 35 41
ROOT
ATOM      1  C   UNL     1      33.133  77.316  21.624  1.00  0.00     0.036 C 
ENDROOT
BRANCH   1   2
ATOM      2  C   UNL     1      33.080  77.357  20.119  1.00  0.00    -0.048 A 
ATOM      3  C   UNL     1      32.983  77.429  17.332  1.00  0.00     0.037 A 
ATOM      4  C   UNL     1      32.487  78.500  18.076  1.00  0.00     0.026 A 
ATOM      5  C   UNL     1      33.527  76.322  17.982  1.00  0.00     0.026 A 
ATOM      6  C   UNL     1      32.537  78.464  19.469  1.00  0.00     0.006 A 
ATOM      7  C   UNL     1      33.575  76.285  19.375  1.00  0.00     0.006 A 
BRANCH   3   8
ATOM      8  N   UNL     1      32.934  77.467  15.923  1.00  0.00    -0.369 N 
BRANCH   8   9
ATOM      9  C   UNL     1      34.145  77.662  15.152  1.00  0.00     0.132 C 
BRANCH   9  10
ATOM     10  C   UNL     1      34.335  76.542  14.141  1.00  0.00     0.131 C 
ATOM     11  Cl  UNL     1      34.882  75.041  14.929  1.00  0.00    -0.125 Cl
ENDBRANCH   9  10
ENDBRANCH   8   9
BRANCH   8  12
ATOM     12  C   UNL     1      31.670  77.325  15.229  1.00  0.00     0.132 C 
BRANCH  12  13
ATOM     13  C   UNL     1      31.041  75.969  15.512  1.00  0.00     0.131 C 
ATOM     14  Cl  UNL     1      31.139  74.897  14.093  1.00  0.00    -0.125 Cl
ENDBRANCH  12  13
ENDBRANCH   8  12
ENDBRANCH   3   8
ENDBRANCH   1   2
BRANCH   1  15
ATOM     15  C   UNL     1      31.839  77.760  22.323  1.00  0.00     0.016 C 
BRANCH  15  16
ATOM     16  C   UNL     1      30.739  76.696  22.326  1.00  0.00     0.123 C 
BRANCH  16  17
ATOM     17  C   UNL     1      29.509  77.117  21.555  1.00  0.00     0.306 C 
ATOM     18  O   UNL     1      29.385  78.193  20.984  1.00  0.00    -0.252 OA
BRANCH  17  19
ATOM     19  O   UNL     1      28.583  76.110  21.570  1.00  0.00    -0.462 OA
BRANCH  19  20
ATOM     20  C   UNL     1      28.670  75.175  20.499  1.00  0.00     0.176 C 
ATOM     21  C   UNL     1      28.951  73.780  21.057  1.00  0.00     0.049 C 
ATOM     22  C   UNL     1      29.757  75.638  19.535  1.00  0.00     0.046 C 
ATOM     23  C   UNL     1      29.196  72.773  19.927  1.00  0.00    -0.001 C 
ATOM     24  C   UNL     1      30.034  74.615  18.432  1.00  0.00     0.011 C 
ATOM     25  C   UNL     1      30.359  73.192  18.973  1.00  0.00    -0.026 C 
ATOM     26  C   UNL     1      29.381  71.354  20.472  1.00  0.00     0.004 C 
ATOM     27  C   UNL     1      30.414  72.150  17.786  1.00  0.00    -0.001 C 
ATOM     28  C   UNL     1      29.427  70.352  19.323  1.00  0.00     0.004 C 
ATOM     29  C   UNL     1      30.519  70.682  18.288  1.00  0.00    -0.002 C 
ATOM     30  C   UNL     1      31.528  72.447  16.764  1.00  0.00     0.007 C 
ATOM     31  C   UNL     1      30.560  69.642  17.125  1.00  0.00     0.018 C 
ATOM     32  C   UNL     1      31.569  71.434  15.622  1.00  0.00     0.029 C 
ATOM     33  C   UNL     1      31.678  69.967  16.093  1.00  0.00     0.040 C 
ATOM     34  C   UNL     1      29.216  69.487  16.388  1.00  0.00     0.016 C 
ATOM     35  N   UNL     1      31.584  69.110  14.896  1.00  0.00    -0.351 N 
ATOM     36  C   UNL     1      29.293  68.372  15.361  1.00  0.00     0.100 C 
ATOM     37  C   UNL     1      30.461  68.480  14.416  1.00  0.00     0.220 C 
ATOM     38  O   UNL     1      30.426  67.945  13.307  1.00  0.00    -0.275 OA
ATOM     39  C   UNL     1      31.719  73.255  19.718  1.00  0.00     0.012 C 
ATOM     40  C   UNL     1      33.069  69.710  16.708  1.00  0.00     0.035 C 
ATOM     41  H   UNL     1      32.454  68.966  14.363  1.00  0.00     0.164 HD
ENDBRANCH  19  20
ENDBRANCH  17  19
ENDBRANCH  16  17
ENDBRANCH  15  16
ENDBRANCH   1  15
TORSDOF 11
ENDMDL
