MODEL 1
REMARK VINA RESULT:    -7.744      0.000      0.000
REMARK INTER + INTRA:         -18.787
REMARK INTER:                 -14.082
REMARK INTRA:                  -4.705
REMARK UNBOUND:                -4.705
REMARK SMILES O=C(CCCc1ccc(N(CCCl)CCCl)cc1)O[C@H](c1ccccc1)c1cc(O)c2c(c1O)C(=O)c1ccccc1C2=O
REMARK SMILES IDX 4 1 5 2 6 3 9 4 8 5 17 6 7 7 18 8 10 9 11 10 12 11 13 12
REMARK SMILES IDX 14 13 15 14 16 15 3 16 2 17 1 18 19 19 20 20 27 21 33 22
REMARK SMILES IDX 28 23 32 24 29 25 31 26 35 27 43 28 36 29 37 30 44 31 42 32
REMARK SMILES IDX 38 33 41 34 39 35 40 36 34 37 30 39 21 41 22 42 26 43 23 44
REMARK SMILES IDX 25 45 24 46
REMARK H PARENT 34 38 30 40
ROOT
ATOM      1  C   UNL     1      31.637  73.247  14.888  1.00  0.00     0.016 C 
ENDROOT
BRANCH   1   2
ATOM      2  C   UNL     1      32.671  73.937  15.789  1.00  0.00     0.036 C 
BRANCH   2   3
ATOM      3  C   UNL     1      32.154  75.148  16.523  1.00  0.00    -0.048 A 
ATOM      4  C   UNL     1      31.198  77.389  17.881  1.00  0.00     0.037 A 
ATOM      5  C   UNL     1      30.327  76.614  17.115  1.00  0.00     0.026 A 
ATOM      6  C   UNL     1      32.546  77.046  17.967  1.00  0.00     0.026 A 
ATOM      7  C   UNL     1      30.805  75.494  16.436  1.00  0.00     0.006 A 
ATOM      8  C   UNL     1      33.024  75.925  17.288  1.00  0.00     0.006 A 
BRANCH   4   9
ATOM      9  N   UNL     1      30.713  78.523  18.566  1.00  0.00    -0.369 N 
BRANCH   9  10
ATOM     10  C   UNL     1      31.592  79.290  19.427  1.00  0.00     0.132 C 
BRANCH  10  11
ATOM     11  C   UNL     1      32.230  80.443  18.668  1.00  0.00     0.131 C 
ATOM     12  Cl  UNL     1      33.637  81.097  19.541  1.00  0.00    -0.125 Cl
ENDBRANCH  10  11
ENDBRANCH   9  10
BRANCH   9  13
ATOM     13  C   UNL     1      29.328  78.927  18.431  1.00  0.00     0.132 C 
BRANCH  13  14
ATOM     14  C   UNL     1      28.872  79.726  19.642  1.00  0.00     0.131 C 
ATOM     15  Cl  UNL     1      27.114  79.586  19.891  1.00  0.00    -0.125 Cl
ENDBRANCH  13  14
ENDBRANCH   9  13
ENDBRANCH   4   9
ENDBRANCH   2   3
ENDBRANCH   1   2
BRANCH   1  16
ATOM     16  C   UNL     1      31.458  71.755  15.177  1.00  0.00     0.123 C 
BRANCH  16  17
ATOM     17  C   UNL     1      30.007  71.336  15.235  1.00  0.00     0.306 C 
ATOM     18  O   UNL     1      29.159  71.659  14.413  1.00  0.00    -0.252 OA
BRANCH  17  19
ATOM     19  O   UNL     1      29.813  70.531  16.316  1.00  0.00    -0.452 OA
BRANCH  19  20
ATOM     20  C   UNL     1      30.672  70.798  17.439  1.00  0.00     0.241 C 
BRANCH  20  21
ATOM     21  C   UNL     1      30.207  71.969  18.239  1.00  0.00     0.043 A 
ATOM     22  C   UNL     1      31.109  72.744  18.970  1.00  0.00     0.135 A 
ATOM     23  C   UNL     1      28.849  72.284  18.249  1.00  0.00     0.058 A 
ATOM     24  C   UNL     1      30.650  73.837  19.713  1.00  0.00     0.080 A 
ATOM     25  C   UNL     1      28.388  73.372  18.989  1.00  0.00     0.128 A 
ATOM     26  C   UNL     1      29.290  74.151  19.724  1.00  0.00     0.079 A 
ATOM     27  C   UNL     1      31.613  74.651  20.483  1.00  0.00     0.198 C 
ATOM     28  C   UNL     1      28.792  75.303  20.506  1.00  0.00     0.198 C 
ATOM     29  O   UNL     1      32.811  74.398  20.493  1.00  0.00    -0.288 OA
ATOM     30  C   UNL     1      31.116  75.802  21.264  1.00  0.00     0.034 A 
ATOM     31  O   UNL     1      27.605  75.599  20.530  1.00  0.00    -0.288 OA
ATOM     32  C   UNL     1      29.755  76.116  21.275  1.00  0.00     0.034 A 
ATOM     33  C   UNL     1      32.018  76.582  21.998  1.00  0.00     0.013 A 
ATOM     34  C   UNL     1      29.297  77.210  22.020  1.00  0.00     0.013 A 
ATOM     35  C   UNL     1      31.557  77.670  22.739  1.00  0.00     0.001 A 
ATOM     36  C   UNL     1      30.200  77.984  22.749  1.00  0.00     0.001 A 
BRANCH  22  37
ATOM     37  O   UNL     1      32.428  72.397  18.928  1.00  0.00    -0.507 OA
ATOM     38  H   UNL     1      32.979  72.443  19.750  1.00  0.00     0.293 HD
ENDBRANCH  22  37
BRANCH  25  39
ATOM     39  O   UNL     1      27.048  73.626  18.958  1.00  0.00    -0.507 OA
ATOM     40  H   UNL     1      26.696  74.360  18.396  1.00  0.00     0.293 HD
ENDBRANCH  25  39
ENDBRANCH  20  21
BRANCH  20  41
ATOM     41  C   UNL     1      30.841  69.524  18.258  1.00  0.00    -0.003 A 
ATOM     42  C   UNL     1      29.785  69.048  19.034  1.00  0.00     0.008 A 
ATOM     43  C   UNL     1      32.054  68.834  18.231  1.00  0.00     0.008 A 
ATOM     44  C   UNL     1      29.939  67.882  19.783  1.00  0.00     0.000 A 
ATOM     45  C   UNL     1      32.208  67.668  18.982  1.00  0.00     0.000 A 
ATOM     46  C   UNL     1      31.151  67.192  19.757  1.00  0.00     0.000 A 
ENDBRANCH  20  41
ENDBRANCH  19  20
ENDBRANCH  17  19
ENDBRANCH  16  17
ENDBRANCH   1  16
TORSDOF 15
ENDMDL
MODEL 2
REMARK VINA RESULT:    -7.631      2.897      7.557
REMARK INTER + INTRA:         -18.583
REMARK INTER:                 -13.810
REMARK INTRA:                  -4.773
REMARK UNBOUND:                -4.705
REMARK SMILES O=C(CCCc1ccc(N(CCCl)CCCl)cc1)O[C@H](c1ccccc1)c1cc(O)c2c(c1O)C(=O)c1ccccc1C2=O
REMARK SMILES IDX 4 1 5 2 6 3 9 4 8 5 17 6 7 7 18 8 10 9 11 10 12 11 13 12
REMARK SMILES IDX 14 13 15 14 16 15 3 16 2 17 1 18 19 19 20 20 27 21 33 22
REMARK SMILES IDX 28 23 32 24 29 25 31 26 35 27 43 28 36 29 37 30 44 31 42 32
REMARK SMILES IDX 38 33 41 34 39 35 40 36 34 37 30 39 21 41 22 42 26 43 23 44
REMARK SMILES IDX 25 45 24 46
REMARK H PARENT 34 38 30 40
ROOT
ATOM      1  C   UNL     1      32.966  76.633  22.362  1.00  0.00     0.016 C 
ENDROOT
BRANCH   1   2
ATOM      2  C   UNL     1      32.591  75.263  21.779  1.00  0.00     0.036 C 
BRANCH   2   3
ATOM      3  C   UNL     1      32.950  75.081  20.326  1.00  0.00    -0.048 A 
ATOM      4  C   UNL     1      33.614  74.745  17.638  1.00  0.00     0.037 A 
ATOM      5  C   UNL     1      33.129  73.665  18.376  1.00  0.00     0.026 A 
ATOM      6  C   UNL     1      33.767  75.992  18.242  1.00  0.00     0.026 A 
ATOM      7  C   UNL     1      32.798  73.834  19.720  1.00  0.00     0.006 A 
ATOM      8  C   UNL     1      33.435  76.160  19.587  1.00  0.00     0.006 A 
BRANCH   4   9
ATOM      9  N   UNL     1      33.951  74.574  16.278  1.00  0.00    -0.369 N 
BRANCH   9  10
ATOM     10  C   UNL     1      34.946  75.425  15.657  1.00  0.00     0.132 C 
BRANCH  10  11
ATOM     11  C   UNL     1      34.348  76.201  14.494  1.00  0.00     0.131 C 
ATOM     12  Cl  UNL     1      32.866  77.060  14.979  1.00  0.00    -0.125 Cl
ENDBRANCH  10  11
ENDBRANCH   9  10
BRANCH   9  13
ATOM     13  C   UNL     1      33.295  73.555  15.482  1.00  0.00     0.132 C 
BRANCH  13  14
ATOM     14  C   UNL     1      34.296  72.528  14.977  1.00  0.00     0.131 C 
ATOM     15  Cl  UNL     1      33.776  70.868  15.358  1.00  0.00    -0.125 Cl
ENDBRANCH  13  14
ENDBRANCH   9  13
ENDBRANCH   4   9
ENDBRANCH   2   3
ENDBRANCH   1   2
BRANCH   1  16
ATOM     16  C   UNL     1      31.762  77.495  22.747  1.00  0.00     0.123 C 
BRANCH  16  17
ATOM     17  C   UNL     1      31.418  78.528  21.698  1.00  0.00     0.306 C 
ATOM     18  O   UNL     1      32.211  79.340  21.239  1.00  0.00    -0.252 OA
BRANCH  17  19
ATOM     19  O   UNL     1      30.113  78.386  21.337  1.00  0.00    -0.452 OA
BRANCH  19  20
ATOM     20  C   UNL     1      29.894  78.017  19.964  1.00  0.00     0.241 C 
BRANCH  20  21
ATOM     21  C   UNL     1      29.630  76.555  19.809  1.00  0.00     0.043 A 
ATOM     22  C   UNL     1      29.868  75.907  18.597  1.00  0.00     0.135 A 
ATOM     23  C   UNL     1      29.137  75.839  20.899  1.00  0.00     0.058 A 
ATOM     24  C   UNL     1      29.613  74.536  18.475  1.00  0.00     0.080 A 
ATOM     25  C   UNL     1      28.881  74.473  20.781  1.00  0.00     0.128 A 
ATOM     26  C   UNL     1      29.119  73.819  19.566  1.00  0.00     0.079 A 
ATOM     27  C   UNL     1      29.869  73.859  17.187  1.00  0.00     0.198 C 
ATOM     28  C   UNL     1      28.844  72.372  19.450  1.00  0.00     0.198 C 
ATOM     29  O   UNL     1      30.301  74.463  16.214  1.00  0.00    -0.288 OA
ATOM     30  C   UNL     1      29.595  72.412  17.071  1.00  0.00     0.034 A 
ATOM     31  O   UNL     1      28.411  71.721  20.392  1.00  0.00    -0.288 OA
ATOM     32  C   UNL     1      29.100  71.695  18.162  1.00  0.00     0.034 A 
ATOM     33  C   UNL     1      29.833  71.758  15.856  1.00  0.00     0.013 A 
ATOM     34  C   UNL     1      28.844  70.324  18.039  1.00  0.00     0.013 A 
ATOM     35  C   UNL     1      29.576  70.392  15.737  1.00  0.00     0.001 A 
ATOM     36  C   UNL     1      29.083  69.677  16.826  1.00  0.00     0.001 A 
BRANCH  22  37
ATOM     37  O   UNL     1      30.352  76.651  17.560  1.00  0.00    -0.507 OA
ATOM     38  H   UNL     1      29.726  77.054  16.906  1.00  0.00     0.293 HD
ENDBRANCH  22  37
BRANCH  25  39
ATOM     39  O   UNL     1      28.399  73.831  21.883  1.00  0.00    -0.507 OA
ATOM     40  H   UNL     1      29.000  73.265  22.429  1.00  0.00     0.293 HD
ENDBRANCH  25  39
ENDBRANCH  20  21
BRANCH  20  41
ATOM     41  C   UNL     1      28.806  78.903  19.371  1.00  0.00    -0.003 A 
ATOM     42  C   UNL     1      29.088  79.713  18.271  1.00  0.00     0.008 A 
ATOM     43  C   UNL     1      27.527  78.904  19.927  1.00  0.00     0.008 A 
ATOM     44  C   UNL     1      28.093  80.525  17.728  1.00  0.00     0.000 A 
ATOM     45  C   UNL     1      26.531  79.716  19.384  1.00  0.00     0.000 A 
ATOM     46  C   UNL     1      26.814  80.525  18.285  1.00  0.00     0.000 A 
ENDBRANCH  20  41
ENDBRANCH  19  20
ENDBRANCH  17  19
ENDBRANCH  16  17
ENDBRANCH   1  16
TORSDOF 15
ENDMDL
MODEL 3
REMARK VINA RESULT:    -7.622      2.154      5.406
REMARK INTER + INTRA:         -18.565
REMARK INTER:                 -13.706
REMARK INTRA:                  -4.859
REMARK UNBOUND:                -4.705
REMARK SMILES O=C(CCCc1ccc(N(CCCl)CCCl)cc1)O[C@H](c1ccccc1)c1cc(O)c2c(c1O)C(=O)c1ccccc1C2=O
REMARK SMILES IDX 4 1 5 2 6 3 9 4 8 5 17 6 7 7 18 8 10 9 11 10 12 11 13 12
REMARK SMILES IDX 14 13 15 14 16 15 3 16 2 17 1 18 19 19 20 20 27 21 33 22
REMARK SMILES IDX 28 23 32 24 29 25 31 26 35 27 43 28 36 29 37 30 44 31 42 32
REMARK SMILES IDX 38 33 41 34 39 35 40 36 34 37 30 39 21 41 22 42 26 43 23 44
REMARK SMILES IDX 25 45 24 46
REMARK H PARENT 34 38 30 40
ROOT
ATOM      1  C   UNL     1      30.709  74.396  22.337  1.00  0.00     0.016 C 
ENDROOT
BRANCH   1   2
ATOM      2  C   UNL     1      31.051  75.864  22.630  1.00  0.00     0.036 C 
BRANCH   2   3
ATOM      3  C   UNL     1      30.592  76.837  21.574  1.00  0.00    -0.048 A 
ATOM      4  C   UNL     1      29.744  78.638  19.620  1.00  0.00     0.037 A 
ATOM      5  C   UNL     1      29.276  78.758  20.929  1.00  0.00     0.026 A 
ATOM      6  C   UNL     1      30.636  77.619  19.288  1.00  0.00     0.026 A 
ATOM      7  C   UNL     1      29.700  77.857  21.905  1.00  0.00     0.006 A 
ATOM      8  C   UNL     1      31.060  76.718  20.266  1.00  0.00     0.006 A 
BRANCH   4   9
ATOM      9  N   UNL     1      29.314  79.549  18.632  1.00  0.00    -0.369 N 
BRANCH   9  10
ATOM     10  C   UNL     1      28.337  80.570  18.952  1.00  0.00     0.132 C 
BRANCH  10  11
ATOM     11  C   UNL     1      26.996  80.263  18.304  1.00  0.00     0.131 C 
ATOM     12  Cl  UNL     1      25.969  79.275  19.373  1.00  0.00    -0.125 Cl
ENDBRANCH  10  11
ENDBRANCH   9  10
BRANCH   9  13
ATOM     13  C   UNL     1      29.832  79.464  17.281  1.00  0.00     0.132 C 
BRANCH  13  14
ATOM     14  C   UNL     1      30.857  80.557  17.020  1.00  0.00     0.131 C 
ATOM     15  Cl  UNL     1      32.514  79.982  17.328  1.00  0.00    -0.125 Cl
ENDBRANCH  13  14
ENDBRANCH   9  13
ENDBRANCH   4   9
ENDBRANCH   2   3
ENDBRANCH   1   2
BRANCH   1  16
ATOM     16  C   UNL     1      29.212  74.127  22.173  1.00  0.00     0.123 C 
BRANCH  16  17
ATOM     17  C   UNL     1      28.827  73.785  20.752  1.00  0.00     0.306 C 
ATOM     18  O   UNL     1      28.025  74.421  20.080  1.00  0.00    -0.252 OA
BRANCH  17  19
ATOM     19  O   UNL     1      29.529  72.692  20.345  1.00  0.00    -0.452 OA
BRANCH  19  20
ATOM     20  C   UNL     1      29.629  72.524  18.920  1.00  0.00     0.241 C 
BRANCH  20  21
ATOM     21  C   UNL     1      30.725  73.351  18.330  1.00  0.00     0.043 A 
ATOM     22  C   UNL     1      30.449  74.342  17.388  1.00  0.00     0.135 A 
ATOM     23  C   UNL     1      32.038  73.118  18.735  1.00  0.00     0.058 A 
ATOM     24  C   UNL     1      31.492  75.104  16.849  1.00  0.00     0.080 A 
ATOM     25  C   UNL     1      33.080  73.875  18.200  1.00  0.00     0.128 A 
ATOM     26  C   UNL     1      32.807  74.870  17.254  1.00  0.00     0.079 A 
ATOM     27  C   UNL     1      31.190  76.152  15.853  1.00  0.00     0.198 C 
ATOM     28  C   UNL     1      33.918  75.667  16.692  1.00  0.00     0.198 C 
ATOM     29  O   UNL     1      30.046  76.377  15.478  1.00  0.00    -0.288 OA
ATOM     30  C   UNL     1      32.299  76.949  15.291  1.00  0.00     0.034 A 
ATOM     31  O   UNL     1      35.079  75.482  17.031  1.00  0.00    -0.288 OA
ATOM     32  C   UNL     1      33.615  76.714  15.696  1.00  0.00     0.034 A 
ATOM     33  C   UNL     1      32.027  77.944  14.345  1.00  0.00     0.013 A 
ATOM     34  C   UNL     1      34.658  77.477  15.155  1.00  0.00     0.013 A 
ATOM     35  C   UNL     1      33.069  78.702  13.809  1.00  0.00     0.001 A 
ATOM     36  C   UNL     1      34.381  78.468  14.214  1.00  0.00     0.001 A 
BRANCH  22  37
ATOM     37  O   UNL     1      29.147  74.533  17.024  1.00  0.00    -0.507 OA
ATOM     38  H   UNL     1      28.417  74.213  17.612  1.00  0.00     0.293 HD
ENDBRANCH  22  37
BRANCH  25  39
ATOM     39  O   UNL     1      34.341  73.597  18.637  1.00  0.00    -0.507 OA
ATOM     40  H   UNL     1      34.528  72.742  19.101  1.00  0.00     0.293 HD
ENDBRANCH  25  39
ENDBRANCH  20  21
BRANCH  20  41
ATOM     41  C   UNL     1      29.736  71.040  18.593  1.00  0.00    -0.003 A 
ATOM     42  C   UNL     1      29.840  70.105  19.622  1.00  0.00     0.008 A 
ATOM     43  C   UNL     1      29.731  70.617  17.264  1.00  0.00     0.008 A 
ATOM     44  C   UNL     1      29.939  68.746  19.324  1.00  0.00     0.000 A 
ATOM     45  C   UNL     1      29.830  69.258  16.965  1.00  0.00     0.000 A 
ATOM     46  C   UNL     1      29.934  68.323  17.994  1.00  0.00     0.000 A 
ENDBRANCH  20  41
ENDBRANCH  19  20
ENDBRANCH  17  19
ENDBRANCH  16  17
ENDBRANCH   1  16
TORSDOF 15
ENDMDL
MODEL 4
REMARK VINA RESULT:    -7.505      1.888      3.284
REMARK INTER + INTRA:         -18.353
REMARK INTER:                 -12.926
REMARK INTRA:                  -5.427
REMARK UNBOUND:                -4.705
REMARK SMILES O=C(CCCc1ccc(N(CCCl)CCCl)cc1)O[C@H](c1ccccc1)c1cc(O)c2c(c1O)C(=O)c1ccccc1C2=O
REMARK SMILES IDX 4 1 5 2 6 3 9 4 8 5 17 6 7 7 18 8 10 9 11 10 12 11 13 12
REMARK SMILES IDX 14 13 15 14 16 15 3 16 2 17 1 18 19 19 20 20 27 21 33 22
REMARK SMILES IDX 28 23 32 24 29 25 31 26 35 27 43 28 36 29 37 30 44 31 42 32
REMARK SMILES IDX 38 33 41 34 39 35 40 36 34 37 30 39 21 41 22 42 26 43 23 44
REMARK SMILES IDX 25 45 24 46
REMARK H PARENT 34 38 30 40
ROOT
ATOM      1  C   UNL     1      30.033  72.399  15.426  1.00  0.00     0.016 C 
ENDROOT
BRANCH   1   2
ATOM      2  C   UNL     1      31.125  73.371  14.958  1.00  0.00     0.036 C 
BRANCH   2   3
ATOM      3  C   UNL     1      31.150  74.687  15.694  1.00  0.00    -0.048 A 
ATOM      4  C   UNL     1      31.197  77.120  17.057  1.00  0.00     0.037 A 
ATOM      5  C   UNL     1      32.100  76.885  16.020  1.00  0.00     0.026 A 
ATOM      6  C   UNL     1      30.271  76.140  17.413  1.00  0.00     0.026 A 
ATOM      7  C   UNL     1      32.076  75.668  15.339  1.00  0.00     0.006 A 
ATOM      8  C   UNL     1      30.248  74.923  16.732  1.00  0.00     0.006 A 
BRANCH   4   9
ATOM      9  N   UNL     1      31.222  78.351  17.746  1.00  0.00    -0.369 N 
BRANCH   9  10
ATOM     10  C   UNL     1      29.985  79.020  18.097  1.00  0.00     0.132 C 
BRANCH  10  11
ATOM     11  C   UNL     1      29.856  79.171  19.605  1.00  0.00     0.131 C 
ATOM     12  Cl  UNL     1      28.571  78.124  20.255  1.00  0.00    -0.125 Cl
ENDBRANCH  10  11
ENDBRANCH   9  10
BRANCH   9  13
ATOM     13  C   UNL     1      32.485  78.970  18.098  1.00  0.00     0.132 C 
BRANCH  13  14
ATOM     14  C   UNL     1      32.661  80.297  17.376  1.00  0.00     0.131 C 
ATOM     15  Cl  UNL     1      32.690  81.662  18.519  1.00  0.00    -0.125 Cl
ENDBRANCH  13  14
ENDBRANCH   9  13
ENDBRANCH   4   9
ENDBRANCH   2   3
ENDBRANCH   1   2
BRANCH   1  16
ATOM     16  C   UNL     1      30.095  71.026  14.754  1.00  0.00     0.123 C 
BRANCH  16  17
ATOM     17  C   UNL     1      31.351  70.257  15.097  1.00  0.00     0.306 C 
ATOM     18  O   UNL     1      32.142  69.820  14.273  1.00  0.00    -0.252 OA
BRANCH  17  19
ATOM     19  O   UNL     1      31.464  70.160  16.451  1.00  0.00    -0.452 OA
BRANCH  19  20
ATOM     20  C   UNL     1      32.782  70.403  16.973  1.00  0.00     0.241 C 
BRANCH  20  21
ATOM     21  C   UNL     1      32.875  71.715  17.681  1.00  0.00     0.043 A 
ATOM     22  C   UNL     1      31.984  72.045  18.701  1.00  0.00     0.135 A 
ATOM     23  C   UNL     1      33.872  72.615  17.306  1.00  0.00     0.058 A 
ATOM     24  C   UNL     1      32.090  73.281  19.350  1.00  0.00     0.080 A 
ATOM     25  C   UNL     1      33.981  73.847  17.950  1.00  0.00     0.128 A 
ATOM     26  C   UNL     1      33.087  74.182  18.975  1.00  0.00     0.079 A 
ATOM     27  C   UNL     1      31.140  73.621  20.430  1.00  0.00     0.198 C 
ATOM     28  C   UNL     1      33.209  75.490  19.651  1.00  0.00     0.198 C 
ATOM     29  O   UNL     1      30.255  72.850  20.779  1.00  0.00    -0.288 OA
ATOM     30  C   UNL     1      31.263  74.928  21.107  1.00  0.00     0.034 A 
ATOM     31  O   UNL     1      34.075  76.297  19.341  1.00  0.00    -0.288 OA
ATOM     32  C   UNL     1      32.260  75.830  20.731  1.00  0.00     0.034 A 
ATOM     33  C   UNL     1      30.369  75.263  22.132  1.00  0.00     0.013 A 
ATOM     34  C   UNL     1      32.365  77.066  21.380  1.00  0.00     0.013 A 
ATOM     35  C   UNL     1      30.477  76.496  22.776  1.00  0.00     0.001 A 
ATOM     36  C   UNL     1      31.473  77.395  22.401  1.00  0.00     0.001 A 
BRANCH  22  37
ATOM     37  O   UNL     1      31.026  71.131  19.033  1.00  0.00    -0.507 OA
ATOM     38  H   UNL     1      30.109  71.433  19.256  1.00  0.00     0.293 HD
ENDBRANCH  22  37
BRANCH  25  39
ATOM     39  O   UNL     1      34.976  74.682  17.536  1.00  0.00    -0.507 OA
ATOM     40  H   UNL     1      35.887  74.591  17.911  1.00  0.00     0.293 HD
ENDBRANCH  25  39
ENDBRANCH  20  21
BRANCH  20  41
ATOM     41  C   UNL     1      33.214  69.216  17.825  1.00  0.00    -0.003 A 
ATOM     42  C   UNL     1      32.348  68.138  18.009  1.00  0.00     0.008 A 
ATOM     43  C   UNL     1      34.475  69.206  18.420  1.00  0.00     0.008 A 
ATOM     44  C   UNL     1      32.742  67.051  18.788  1.00  0.00     0.000 A 
ATOM     45  C   UNL     1      34.869  68.119  19.200  1.00  0.00     0.000 A 
ATOM     46  C   UNL     1      34.004  67.041  19.383  1.00  0.00     0.000 A 
ENDBRANCH  20  41
ENDBRANCH  19  20
ENDBRANCH  17  19
ENDBRANCH  16  17
ENDBRANCH   1  16
TORSDOF 15
ENDMDL
MODEL 5
REMARK VINA RESULT:    -7.470      1.834      2.478
REMARK INTER + INTRA:         -18.290
REMARK INTER:                 -13.612
REMARK INTRA:                  -4.678
REMARK UNBOUND:                -4.705
REMARK SMILES O=C(CCCc1ccc(N(CCCl)CCCl)cc1)O[C@H](c1ccccc1)c1cc(O)c2c(c1O)C(=O)c1ccccc1C2=O
REMARK SMILES IDX 4 1 5 2 6 3 9 4 8 5 17 6 7 7 18 8 10 9 11 10 12 11 13 12
REMARK SMILES IDX 14 13 15 14 16 15 3 16 2 17 1 18 19 19 20 20 27 21 33 22
REMARK SMILES IDX 28 23 32 24 29 25 31 26 35 27 43 28 36 29 37 30 44 31 42 32
REMARK SMILES IDX 38 33 41 34 39 35 40 36 34 37 30 39 21 41 22 42 26 43 23 44
REMARK SMILES IDX 25 45 24 46
REMARK H PARENT 34 38 30 40
ROOT
ATOM      1  C   UNL     1      33.361  74.526  14.859  1.00  0.00     0.016 C 
ENDROOT
BRANCH   1   2
ATOM      2  C   UNL     1      33.768  75.502  15.971  1.00  0.00     0.036 C 
BRANCH   2   3
ATOM      3  C   UNL     1      32.660  76.403  16.452  1.00  0.00    -0.048 A 
ATOM      4  C   UNL     1      30.608  78.071  17.340  1.00  0.00     0.037 A 
ATOM      5  C   UNL     1      30.377  77.181  16.292  1.00  0.00     0.026 A 
ATOM      6  C   UNL     1      31.864  78.128  17.945  1.00  0.00     0.026 A 
ATOM      7  C   UNL     1      31.403  76.347  15.848  1.00  0.00     0.006 A 
ATOM      8  C   UNL     1      32.889  77.294  17.500  1.00  0.00     0.006 A 
BRANCH   4   9
ATOM      9  N   UNL     1      29.570  78.915  17.789  1.00  0.00    -0.369 N 
BRANCH   9  10
ATOM     10  C   UNL     1      28.923  79.832  16.872  1.00  0.00     0.132 C 
BRANCH  10  11
ATOM     11  C   UNL     1      29.934  80.777  16.241  1.00  0.00     0.131 C 
ATOM     12  Cl  UNL     1      30.449  82.037  17.389  1.00  0.00    -0.125 Cl
ENDBRANCH  10  11
ENDBRANCH   9  10
BRANCH   9  13
ATOM     13  C   UNL     1      29.149  78.888  19.176  1.00  0.00     0.132 C 
BRANCH  13  14
ATOM     14  C   UNL     1      28.289  80.097  19.508  1.00  0.00     0.131 C 
ATOM     15  Cl  UNL     1      26.566  79.661  19.619  1.00  0.00    -0.125 Cl
ENDBRANCH  13  14
ENDBRANCH   9  13
ENDBRANCH   4   9
ENDBRANCH   2   3
ENDBRANCH   1   2
BRANCH   1  16
ATOM     16  C   UNL     1      34.440  73.500  14.506  1.00  0.00     0.123 C 
BRANCH  16  17
ATOM     17  C   UNL     1      34.007  72.075  14.767  1.00  0.00     0.306 C 
ATOM     18  O   UNL     1      34.771  71.122  14.845  1.00  0.00    -0.252 OA
BRANCH  17  19
ATOM     19  O   UNL     1      32.655  72.037  14.925  1.00  0.00    -0.452 OA
BRANCH  19  20
ATOM     20  C   UNL     1      32.198  71.399  16.131  1.00  0.00     0.241 C 
BRANCH  20  21
ATOM     21  C   UNL     1      31.587  72.372  17.086  1.00  0.00     0.043 A 
ATOM     22  C   UNL     1      32.366  73.027  18.040  1.00  0.00     0.135 A 
ATOM     23  C   UNL     1      30.218  72.619  17.013  1.00  0.00     0.058 A 
ATOM     24  C   UNL     1      31.772  73.934  18.925  1.00  0.00     0.080 A 
ATOM     25  C   UNL     1      29.622  73.522  17.893  1.00  0.00     0.128 A 
ATOM     26  C   UNL     1      30.400  74.182  18.852  1.00  0.00     0.079 A 
ATOM     27  C   UNL     1      32.605  74.623  19.931  1.00  0.00     0.198 C 
ATOM     28  C   UNL     1      29.760  75.136  19.781  1.00  0.00     0.198 C 
ATOM     29  O   UNL     1      33.810  74.425  20.018  1.00  0.00    -0.288 OA
ATOM     30  C   UNL     1      31.966  75.578  20.859  1.00  0.00     0.034 A 
ATOM     31  O   UNL     1      28.559  75.371  19.737  1.00  0.00    -0.288 OA
ATOM     32  C   UNL     1      30.593  75.825  20.787  1.00  0.00     0.034 A 
ATOM     33  C   UNL     1      32.744  76.238  21.818  1.00  0.00     0.013 A 
ATOM     34  C   UNL     1      29.999  76.733  21.673  1.00  0.00     0.013 A 
ATOM     35  C   UNL     1      32.148  77.141  22.699  1.00  0.00     0.001 A 
ATOM     36  C   UNL     1      30.779  77.387  22.626  1.00  0.00     0.001 A 
BRANCH  22  37
ATOM     37  O   UNL     1      33.703  72.752  18.071  1.00  0.00    -0.507 OA
ATOM     38  H   UNL     1      34.156  72.403  17.263  1.00  0.00     0.293 HD
ENDBRANCH  22  37
BRANCH  25  39
ATOM     39  O   UNL     1      28.278  73.719  17.770  1.00  0.00    -0.507 OA
ATOM     40  H   UNL     1      27.652  72.963  17.902  1.00  0.00     0.293 HD
ENDBRANCH  25  39
ENDBRANCH  20  21
BRANCH  20  41
ATOM     41  C   UNL     1      31.283  70.236  15.771  1.00  0.00    -0.003 A 
ATOM     42  C   UNL     1      31.046  69.221  16.698  1.00  0.00     0.008 A 
ATOM     43  C   UNL     1      30.682  70.186  14.513  1.00  0.00     0.008 A 
ATOM     44  C   UNL     1      30.208  68.156  16.369  1.00  0.00     0.000 A 
ATOM     45  C   UNL     1      29.844  69.120  14.184  1.00  0.00     0.000 A 
ATOM     46  C   UNL     1      29.607  68.106  15.111  1.00  0.00     0.000 A 
ENDBRANCH  20  41
ENDBRANCH  19  20
ENDBRANCH  17  19
ENDBRANCH  16  17
ENDBRANCH   1  16
TORSDOF 15
ENDMDL
MODEL 6
REMARK VINA RESULT:    -7.445      1.581      2.517
REMARK INTER + INTRA:         -18.243
REMARK INTER:                 -13.405
REMARK INTRA:                  -4.839
REMARK UNBOUND:                -4.705
REMARK SMILES O=C(CCCc1ccc(N(CCCl)CCCl)cc1)O[C@H](c1ccccc1)c1cc(O)c2c(c1O)C(=O)c1ccccc1C2=O
REMARK SMILES IDX 4 1 5 2 6 3 9 4 8 5 17 6 7 7 18 8 10 9 11 10 12 11 13 12
REMARK SMILES IDX 14 13 15 14 16 15 3 16 2 17 1 18 19 19 20 20 27 21 33 22
REMARK SMILES IDX 28 23 32 24 29 25 31 26 35 27 43 28 36 29 37 30 44 31 42 32
REMARK SMILES IDX 38 33 41 34 39 35 40 36 34 37 30 39 21 41 22 42 26 43 23 44
REMARK SMILES IDX 25 45 24 46
REMARK H PARENT 34 38 30 40
ROOT
ATOM      1  C   UNL     1      33.130  72.791  14.835  1.00  0.00     0.016 C 
ENDROOT
BRANCH   1   2
ATOM      2  C   UNL     1      31.700  73.159  15.255  1.00  0.00     0.036 C 
BRANCH   2   3
ATOM      3  C   UNL     1      31.586  74.449  16.027  1.00  0.00    -0.048 A 
ATOM      4  C   UNL     1      31.374  76.836  17.455  1.00  0.00     0.037 A 
ATOM      5  C   UNL     1      32.562  76.522  16.795  1.00  0.00     0.026 A 
ATOM      6  C   UNL     1      30.292  75.957  17.402  1.00  0.00     0.026 A 
ATOM      7  C   UNL     1      32.667  75.328  16.081  1.00  0.00     0.006 A 
ATOM      8  C   UNL     1      30.398  74.764  16.688  1.00  0.00     0.006 A 
BRANCH   4   9
ATOM      9  N   UNL     1      31.268  78.043  18.178  1.00  0.00    -0.369 N 
BRANCH   9  10
ATOM     10  C   UNL     1      30.238  78.206  19.184  1.00  0.00     0.132 C 
BRANCH  10  11
ATOM     11  C   UNL     1      29.642  79.604  19.133  1.00  0.00     0.131 C 
ATOM     12  Cl  UNL     1      28.362  79.811  20.354  1.00  0.00    -0.125 Cl
ENDBRANCH  10  11
ENDBRANCH   9  10
BRANCH   9  13
ATOM     13  C   UNL     1      32.177  79.140  17.912  1.00  0.00     0.132 C 
BRANCH  13  14
ATOM     14  C   UNL     1      33.361  79.111  18.865  1.00  0.00     0.131 C 
ATOM     15  Cl  UNL     1      33.211  80.356  20.130  1.00  0.00    -0.125 Cl
ENDBRANCH  13  14
ENDBRANCH   9  13
ENDBRANCH   4   9
ENDBRANCH   2   3
ENDBRANCH   1   2
BRANCH   1  16
ATOM     16  C   UNL     1      33.553  71.378  15.241  1.00  0.00     0.123 C 
BRANCH  16  17
ATOM     17  C   UNL     1      32.429  70.373  15.136  1.00  0.00     0.306 C 
ATOM     18  O   UNL     1      32.011  69.908  14.084  1.00  0.00    -0.252 OA
BRANCH  17  19
ATOM     19  O   UNL     1      31.988  70.057  16.385  1.00  0.00    -0.452 OA
BRANCH  19  20
ATOM     20  C   UNL     1      32.835  70.498  17.462  1.00  0.00     0.241 C 
BRANCH  20  21
ATOM     21  C   UNL     1      32.138  71.454  18.373  1.00  0.00     0.043 A 
ATOM     22  C   UNL     1      32.777  72.608  18.827  1.00  0.00     0.135 A 
ATOM     23  C   UNL     1      30.830  71.178  18.767  1.00  0.00     0.058 A 
ATOM     24  C   UNL     1      32.104  73.490  19.681  1.00  0.00     0.080 A 
ATOM     25  C   UNL     1      30.156  72.054  19.618  1.00  0.00     0.128 A 
ATOM     26  C   UNL     1      30.794  73.213  20.077  1.00  0.00     0.079 A 
ATOM     27  C   UNL     1      32.789  74.709  20.156  1.00  0.00     0.198 C 
ATOM     28  C   UNL     1      30.073  74.135  20.979  1.00  0.00     0.198 C 
ATOM     29  O   UNL     1      33.937  74.976  19.827  1.00  0.00    -0.288 OA
ATOM     30  C   UNL     1      32.067  75.631  21.057  1.00  0.00     0.034 A 
ATOM     31  O   UNL     1      28.924  73.915  21.340  1.00  0.00    -0.288 OA
ATOM     32  C   UNL     1      30.757  75.354  21.454  1.00  0.00     0.034 A 
ATOM     33  C   UNL     1      32.706  76.790  21.516  1.00  0.00     0.013 A 
ATOM     34  C   UNL     1      30.085  76.237  22.308  1.00  0.00     0.013 A 
ATOM     35  C   UNL     1      32.032  77.667  22.367  1.00  0.00     0.001 A 
ATOM     36  C   UNL     1      30.725  77.390  22.762  1.00  0.00     0.001 A 
BRANCH  22  37
ATOM     37  O   UNL     1      34.057  72.835  18.412  1.00  0.00    -0.507 OA
ATOM     38  H   UNL     1      34.335  72.574  17.498  1.00  0.00     0.293 HD
ENDBRANCH  22  37
BRANCH  25  39
ATOM     39  O   UNL     1      28.879  71.726  19.967  1.00  0.00    -0.507 OA
ATOM     40  H   UNL     1      28.314  72.380  20.448  1.00  0.00     0.293 HD
ENDBRANCH  25  39
ENDBRANCH  20  21
BRANCH  20  41
ATOM     41  C   UNL     1      33.415  69.283  18.176  1.00  0.00    -0.003 A 
ATOM     42  C   UNL     1      32.606  68.179  18.444  1.00  0.00     0.008 A 
ATOM     43  C   UNL     1      34.756  69.276  18.562  1.00  0.00     0.008 A 
ATOM     44  C   UNL     1      33.137  67.067  19.097  1.00  0.00     0.000 A 
ATOM     45  C   UNL     1      35.286  68.163  19.216  1.00  0.00     0.000 A 
ATOM     46  C   UNL     1      34.478  67.060  19.483  1.00  0.00     0.000 A 
ENDBRANCH  20  41
ENDBRANCH  19  20
ENDBRANCH  17  19
ENDBRANCH  16  17
ENDBRANCH   1  16
TORSDOF 15
ENDMDL
MODEL 7
REMARK VINA RESULT:    -7.391      4.477      8.515
REMARK INTER + INTRA:         -18.146
REMARK INTER:                 -12.882
REMARK INTRA:                  -5.264
REMARK UNBOUND:                -4.705
REMARK SMILES O=C(CCCc1ccc(N(CCCl)CCCl)cc1)O[C@H](c1ccccc1)c1cc(O)c2c(c1O)C(=O)c1ccccc1C2=O
REMARK SMILES IDX 4 1 5 2 6 3 9 4 8 5 17 6 7 7 18 8 10 9 11 10 12 11 13 12
REMARK SMILES IDX 14 13 15 14 16 15 3 16 2 17 1 18 19 19 20 20 27 21 33 22
REMARK SMILES IDX 28 23 32 24 29 25 31 26 35 27 43 28 36 29 37 30 44 31 42 32
REMARK SMILES IDX 38 33 41 34 39 35 40 36 34 37 30 39 21 41 22 42 26 43 23 44
REMARK SMILES IDX 25 45 24 46
REMARK H PARENT 34 38 30 40
ROOT
ATOM      1  C   UNL     1      32.104  76.450  12.996  1.00  0.00     0.016 C 
ENDROOT
BRANCH   1   2
ATOM      2  C   UNL     1      32.757  77.094  14.227  1.00  0.00     0.036 C 
BRANCH   2   3
ATOM      3  C   UNL     1      32.241  76.584  15.549  1.00  0.00    -0.048 A 
ATOM      4  C   UNL     1      31.286  75.642  17.994  1.00  0.00     0.037 A 
ATOM      5  C   UNL     1      32.626  76.004  17.862  1.00  0.00     0.026 A 
ATOM      6  C   UNL     1      30.422  75.750  16.904  1.00  0.00     0.026 A 
ATOM      7  C   UNL     1      33.103  76.475  16.639  1.00  0.00     0.006 A 
ATOM      8  C   UNL     1      30.900  76.222  15.681  1.00  0.00     0.006 A 
BRANCH   4   9
ATOM      9  N   UNL     1      30.804  75.164  19.231  1.00  0.00    -0.369 N 
BRANCH   9  10
ATOM     10  C   UNL     1      29.458  75.483  19.666  1.00  0.00     0.132 C 
BRANCH  10  11
ATOM     11  C   UNL     1      28.668  74.218  19.964  1.00  0.00     0.131 C 
ATOM     12  Cl  UNL     1      28.259  73.340  18.470  1.00  0.00    -0.125 Cl
ENDBRANCH  10  11
ENDBRANCH   9  10
BRANCH   9  13
ATOM     13  C   UNL     1      31.653  74.362  20.090  1.00  0.00     0.132 C 
BRANCH  13  14
ATOM     14  C   UNL     1      32.127  75.165  21.291  1.00  0.00     0.131 C 
ATOM     15  Cl  UNL     1      31.105  74.869  22.718  1.00  0.00    -0.125 Cl
ENDBRANCH  13  14
ENDBRANCH   9  13
ENDBRANCH   4   9
ENDBRANCH   2   3
ENDBRANCH   1   2
BRANCH   1  16
ATOM     16  C   UNL     1      31.806  77.435  11.863  1.00  0.00     0.123 C 
BRANCH  16  17
ATOM     17  C   UNL     1      30.720  78.427  12.216  1.00  0.00     0.306 C 
ATOM     18  O   UNL     1      29.546  78.134  12.394  1.00  0.00    -0.252 OA
BRANCH  17  19
ATOM     19  O   UNL     1      31.265  79.670  12.327  1.00  0.00    -0.452 OA
BRANCH  19  20
ATOM     20  C   UNL     1      30.648  80.522  13.309  1.00  0.00     0.241 C 
BRANCH  20  21
ATOM     21  C   UNL     1      31.247  80.344  14.665  1.00  0.00     0.043 A 
ATOM     22  C   UNL     1      30.471  79.912  15.741  1.00  0.00     0.135 A 
ATOM     23  C   UNL     1      32.602  80.617  14.846  1.00  0.00     0.058 A 
ATOM     24  C   UNL     1      31.053  79.752  17.004  1.00  0.00     0.080 A 
ATOM     25  C   UNL     1      33.186  80.459  16.103  1.00  0.00     0.128 A 
ATOM     26  C   UNL     1      32.410  80.026  17.185  1.00  0.00     0.079 A 
ATOM     27  C   UNL     1      30.223  79.293  18.137  1.00  0.00     0.198 C 
ATOM     28  C   UNL     1      33.037  79.862  18.514  1.00  0.00     0.198 C 
ATOM     29  O   UNL     1      29.031  79.047  18.007  1.00  0.00    -0.288 OA
ATOM     30  C   UNL     1      30.850  79.129  19.464  1.00  0.00     0.034 A 
ATOM     31  O   UNL     1      34.224  80.095  18.699  1.00  0.00    -0.288 OA
ATOM     32  C   UNL     1      32.207  79.404  19.646  1.00  0.00     0.034 A 
ATOM     33  C   UNL     1      30.074  78.695  20.546  1.00  0.00     0.013 A 
ATOM     34  C   UNL     1      32.788  79.244  20.910  1.00  0.00     0.013 A 
ATOM     35  C   UNL     1      30.658  78.538  21.804  1.00  0.00     0.001 A 
ATOM     36  C   UNL     1      32.011  78.812  21.985  1.00  0.00     0.001 A 
BRANCH  22  37
ATOM     37  O   UNL     1      29.150  79.656  15.514  1.00  0.00    -0.507 OA
ATOM     38  H   UNL     1      28.830  79.486  14.592  1.00  0.00     0.293 HD
ENDBRANCH  22  37
BRANCH  25  39
ATOM     39  O   UNL     1      34.515  80.743  16.214  1.00  0.00    -0.507 OA
ATOM     40  H   UNL     1      35.163  80.019  16.398  1.00  0.00     0.293 HD
ENDBRANCH  25  39
ENDBRANCH  20  21
BRANCH  20  41
ATOM     41  C   UNL     1      30.673  81.962  12.812  1.00  0.00    -0.003 A 
ATOM     42  C   UNL     1      30.301  83.001  13.666  1.00  0.00     0.008 A 
ATOM     43  C   UNL     1      31.067  82.242  11.504  1.00  0.00     0.008 A 
ATOM     44  C   UNL     1      30.323  84.319  13.212  1.00  0.00     0.000 A 
ATOM     45  C   UNL     1      31.088  83.561  11.050  1.00  0.00     0.000 A 
ATOM     46  C   UNL     1      30.717  84.599  11.904  1.00  0.00     0.000 A 
ENDBRANCH  20  41
ENDBRANCH  19  20
ENDBRANCH  17  19
ENDBRANCH  16  17
ENDBRANCH   1  16
TORSDOF 15
ENDMDL
MODEL 8
REMARK VINA RESULT:    -7.365      4.232      8.257
REMARK INTER + INTRA:         -18.098
REMARK INTER:                 -12.809
REMARK INTRA:                  -5.289
REMARK UNBOUND:                -4.705
REMARK SMILES O=C(CCCc1ccc(N(CCCl)CCCl)cc1)O[C@H](c1ccccc1)c1cc(O)c2c(c1O)C(=O)c1ccccc1C2=O
REMARK SMILES IDX 4 1 5 2 6 3 9 4 8 5 17 6 7 7 18 8 10 9 11 10 12 11 13 12
REMARK SMILES IDX 14 13 15 14 16 15 3 16 2 17 1 18 19 19 20 20 27 21 33 22
REMARK SMILES IDX 28 23 32 24 29 25 31 26 35 27 43 28 36 29 37 30 44 31 42 32
REMARK SMILES IDX 38 33 41 34 39 35 40 36 34 37 30 39 21 41 22 42 26 43 23 44
REMARK SMILES IDX 25 45 24 46
REMARK H PARENT 34 38 30 40
ROOT
ATOM      1  C   UNL     1      31.936  76.398  13.476  1.00  0.00     0.016 C 
ENDROOT
BRANCH   1   2
ATOM      2  C   UNL     1      32.589  76.996  14.730  1.00  0.00     0.036 C 
BRANCH   2   3
ATOM      3  C   UNL     1      32.086  76.425  16.031  1.00  0.00    -0.048 A 
ATOM      4  C   UNL     1      31.157  75.367  18.439  1.00  0.00     0.037 A 
ATOM      5  C   UNL     1      30.299  75.465  17.344  1.00  0.00     0.026 A 
ATOM      6  C   UNL     1      32.479  75.798  18.332  1.00  0.00     0.026 A 
ATOM      7  C   UNL     1      30.764  75.994  16.140  1.00  0.00     0.006 A 
ATOM      8  C   UNL     1      32.944  76.327  17.127  1.00  0.00     0.006 A 
BRANCH   4   9
ATOM      9  N   UNL     1      30.686  74.833  19.657  1.00  0.00    -0.369 N 
BRANCH   9  10
ATOM     10  C   UNL     1      31.599  74.178  20.573  1.00  0.00     0.132 C 
BRANCH  10  11
ATOM     11  C   UNL     1      31.533  74.810  21.954  1.00  0.00     0.131 C 
ATOM     12  Cl  UNL     1      33.093  75.536  22.413  1.00  0.00    -0.125 Cl
ENDBRANCH  10  11
ENDBRANCH   9  10
BRANCH   9  13
ATOM     13  C   UNL     1      29.280  74.919  20.001  1.00  0.00     0.132 C 
BRANCH  13  14
ATOM     14  C   UNL     1      28.684  73.535  20.208  1.00  0.00     0.131 C 
ATOM     15  Cl  UNL     1      27.536  73.120  18.912  1.00  0.00    -0.125 Cl
ENDBRANCH  13  14
ENDBRANCH   9  13
ENDBRANCH   4   9
ENDBRANCH   2   3
ENDBRANCH   1   2
BRANCH   1  16
ATOM     16  C   UNL     1      31.810  77.382  12.311  1.00  0.00     0.123 C 
BRANCH  16  17
ATOM     17  C   UNL     1      30.755  78.440  12.544  1.00  0.00     0.306 C 
ATOM     18  O   UNL     1      29.553  78.217  12.603  1.00  0.00    -0.252 OA
BRANCH  17  19
ATOM     19  O   UNL     1      31.358  79.650  12.702  1.00  0.00    -0.452 OA
BRANCH  19  20
ATOM     20  C   UNL     1      30.714  80.537  13.635  1.00  0.00     0.241 C 
BRANCH  20  21
ATOM     21  C   UNL     1      31.130  80.271  15.044  1.00  0.00     0.043 A 
ATOM     22  C   UNL     1      30.210  79.820  15.991  1.00  0.00     0.135 A 
ATOM     23  C   UNL     1      32.459  80.480  15.406  1.00  0.00     0.058 A 
ATOM     24  C   UNL     1      30.622  79.578  17.306  1.00  0.00     0.080 A 
ATOM     25  C   UNL     1      32.874  80.239  16.716  1.00  0.00     0.128 A 
ATOM     26  C   UNL     1      31.953  79.788  17.669  1.00  0.00     0.079 A 
ATOM     27  C   UNL     1      29.640  79.100  18.302  1.00  0.00     0.198 C 
ATOM     28  C   UNL     1      32.401  79.537  19.055  1.00  0.00     0.198 C 
ATOM     29  O   UNL     1      28.466  78.909  18.012  1.00  0.00    -0.288 OA
ATOM     30  C   UNL     1      30.088  78.848  19.687  1.00  0.00     0.034 A 
ATOM     31  O   UNL     1      33.563  79.712  19.398  1.00  0.00    -0.288 OA
ATOM     32  C   UNL     1      31.420  79.059  20.050  1.00  0.00     0.034 A 
ATOM     33  C   UNL     1      29.167  78.396  20.640  1.00  0.00     0.013 A 
ATOM     34  C   UNL     1      31.831  78.817  21.367  1.00  0.00     0.013 A 
ATOM     35  C   UNL     1      29.581  78.156  21.951  1.00  0.00     0.001 A 
ATOM     36  C   UNL     1      30.910  78.366  22.312  1.00  0.00     0.001 A 
BRANCH  22  37
ATOM     37  O   UNL     1      28.920  79.630  15.588  1.00  0.00    -0.507 OA
ATOM     38  H   UNL     1      28.674  79.756  14.637  1.00  0.00     0.293 HD
ENDBRANCH  22  37
BRANCH  25  39
ATOM     39  O   UNL     1      34.187  80.464  17.006  1.00  0.00    -0.507 OA
ATOM     40  H   UNL     1      34.448  81.255  17.541  1.00  0.00     0.293 HD
ENDBRANCH  25  39
ENDBRANCH  20  21
BRANCH  20  41
ATOM     41  C   UNL     1      30.932  81.979  13.193  1.00  0.00    -0.003 A 
ATOM     42  C   UNL     1      31.750  82.256  12.097  1.00  0.00     0.008 A 
ATOM     43  C   UNL     1      30.315  83.021  13.884  1.00  0.00     0.008 A 
ATOM     44  C   UNL     1      31.950  83.576  11.692  1.00  0.00     0.000 A 
ATOM     45  C   UNL     1      30.516  84.341  13.479  1.00  0.00     0.000 A 
ATOM     46  C   UNL     1      31.333  84.618  12.384  1.00  0.00     0.000 A 
ENDBRANCH  20  41
ENDBRANCH  19  20
ENDBRANCH  17  19
ENDBRANCH  16  17
ENDBRANCH   1  16
TORSDOF 15
ENDMDL
MODEL 9
REMARK VINA RESULT:    -7.212      3.534      8.584
REMARK INTER + INTRA:         -17.820
REMARK INTER:                 -13.912
REMARK INTRA:                  -3.908
REMARK UNBOUND:                -4.705
REMARK SMILES O=C(CCCc1ccc(N(CCCl)CCCl)cc1)O[C@H](c1ccccc1)c1cc(O)c2c(c1O)C(=O)c1ccccc1C2=O
REMARK SMILES IDX 4 1 5 2 6 3 9 4 8 5 17 6 7 7 18 8 10 9 11 10 12 11 13 12
REMARK SMILES IDX 14 13 15 14 16 15 3 16 2 17 1 18 19 19 20 20 27 21 33 22
REMARK SMILES IDX 28 23 32 24 29 25 31 26 35 27 43 28 36 29 37 30 44 31 42 32
REMARK SMILES IDX 38 33 41 34 39 35 40 36 34 37 30 39 21 41 22 42 26 43 23 44
REMARK SMILES IDX 25 45 24 46
REMARK H PARENT 34 38 30 40
ROOT
ATOM      1  C   UNL     1      30.099  75.931  21.988  1.00  0.00     0.016 C 
ENDROOT
BRANCH   1   2
ATOM      2  C   UNL     1      30.396  74.524  22.527  1.00  0.00     0.036 C 
BRANCH   2   3
ATOM      3  C   UNL     1      30.150  73.410  21.542  1.00  0.00    -0.048 A 
ATOM      4  C   UNL     1      29.693  71.349  19.719  1.00  0.00     0.037 A 
ATOM      5  C   UNL     1      28.886  71.470  20.850  1.00  0.00     0.026 A 
ATOM      6  C   UNL     1      30.729  72.257  19.499  1.00  0.00     0.026 A 
ATOM      7  C   UNL     1      29.115  72.501  21.761  1.00  0.00     0.006 A 
ATOM      8  C   UNL     1      30.957  73.288  20.411  1.00  0.00     0.006 A 
BRANCH   4   9
ATOM      9  N   UNL     1      29.463  70.305  18.798  1.00  0.00    -0.369 N 
BRANCH   9  10
ATOM     10  C   UNL     1      29.558  68.922  19.218  1.00  0.00     0.132 C 
BRANCH  10  11
ATOM     11  C   UNL     1      31.007  68.466  19.269  1.00  0.00     0.131 C 
ATOM     12  Cl  UNL     1      31.619  68.062  17.646  1.00  0.00    -0.125 Cl
ENDBRANCH  10  11
ENDBRANCH   9  10
BRANCH   9  13
ATOM     13  C   UNL     1      29.144  70.604  17.416  1.00  0.00     0.132 C 
BRANCH  13  14
ATOM     14  C   UNL     1      28.361  69.466  16.779  1.00  0.00     0.131 C 
ATOM     15  Cl  UNL     1      29.170  68.860  15.312  1.00  0.00    -0.125 Cl
ENDBRANCH  13  14
ENDBRANCH   9  13
ENDBRANCH   4   9
ENDBRANCH   2   3
ENDBRANCH   1   2
BRANCH   1  16
ATOM     16  C   UNL     1      30.822  77.050  22.741  1.00  0.00     0.123 C 
BRANCH  16  17
ATOM     17  C   UNL     1      32.225  77.292  22.232  1.00  0.00     0.306 C 
ATOM     18  O   UNL     1      33.215  76.682  22.612  1.00  0.00    -0.252 OA
BRANCH  17  19
ATOM     19  O   UNL     1      32.196  78.264  21.278  1.00  0.00    -0.452 OA
BRANCH  19  20
ATOM     20  C   UNL     1      33.123  78.083  20.192  1.00  0.00     0.241 C 
BRANCH  20  21
ATOM     21  C   UNL     1      32.633  77.087  19.193  1.00  0.00     0.043 A 
ATOM     22  C   UNL     1      33.315  75.889  18.980  1.00  0.00     0.135 A 
ATOM     23  C   UNL     1      31.477  77.371  18.468  1.00  0.00     0.058 A 
ATOM     24  C   UNL     1      32.837  74.970  18.038  1.00  0.00     0.080 A 
ATOM     25  C   UNL     1      30.998  76.459  17.528  1.00  0.00     0.128 A 
ATOM     26  C   UNL     1      31.679  75.255  17.312  1.00  0.00     0.079 A 
ATOM     27  C   UNL     1      33.566  73.704  17.820  1.00  0.00     0.198 C 
ATOM     28  C   UNL     1      31.165  74.294  16.313  1.00  0.00     0.198 C 
ATOM     29  O   UNL     1      34.584  73.428  18.441  1.00  0.00    -0.288 OA
ATOM     30  C   UNL     1      33.051  72.743  16.823  1.00  0.00     0.034 A 
ATOM     31  O   UNL     1      30.152  74.520  15.664  1.00  0.00    -0.288 OA
ATOM     32  C   UNL     1      31.894  73.028  16.096  1.00  0.00     0.034 A 
ATOM     33  C   UNL     1      33.733  71.539  16.606  1.00  0.00     0.013 A 
ATOM     34  C   UNL     1      31.417  72.109  15.153  1.00  0.00     0.013 A 
ATOM     35  C   UNL     1      33.254  70.626  15.665  1.00  0.00     0.001 A 
ATOM     36  C   UNL     1      32.099  70.911  14.941  1.00  0.00     0.001 A 
BRANCH  22  37
ATOM     37  O   UNL     1      34.441  75.655  19.714  1.00  0.00    -0.507 OA
ATOM     38  H   UNL     1      34.844  76.386  20.248  1.00  0.00     0.293 HD
ENDBRANCH  22  37
BRANCH  25  39
ATOM     39  O   UNL     1      29.863  76.797  16.852  1.00  0.00    -0.507 OA
ATOM     40  H   UNL     1      29.724  77.729  16.552  1.00  0.00     0.293 HD
ENDBRANCH  25  39
ENDBRANCH  20  21
BRANCH  20  41
ATOM     41  C   UNL     1      33.465  79.439  19.589  1.00  0.00    -0.003 A 
ATOM     42  C   UNL     1      33.612  79.572  18.208  1.00  0.00     0.008 A 
ATOM     43  C   UNL     1      33.630  80.549  20.418  1.00  0.00     0.008 A 
ATOM     44  C   UNL     1      33.924  80.814  17.656  1.00  0.00     0.000 A 
ATOM     45  C   UNL     1      33.943  81.791  19.865  1.00  0.00     0.000 A 
ATOM     46  C   UNL     1      34.090  81.924  18.485  1.00  0.00     0.000 A 
ENDBRANCH  20  41
ENDBRANCH  19  20
ENDBRANCH  17  19
ENDBRANCH  16  17
ENDBRANCH   1  16
TORSDOF 15
ENDMDL
