MODEL 1
REMARK VINA RESULT:    -8.802      0.000      0.000
REMARK INTER + INTRA:         -11.146
REMARK INTER:                 -10.860
REMARK INTRA:                  -0.286
REMARK UNBOUND:                -0.286
REMARK SMILES COc1c(O)cc2oc(-c3ccc(O)c(O)c3)cc(=O)c2c1O
REMARK SMILES IDX 8 1 20 2 21 3 7 4 9 5 22 6 19 7 18 8 6 9 3 10 4 11 10 12
REMARK SMILES IDX 17 13 11 14 15 15 12 16 13 17 16 18 14 20 23 22 5 24 2 26
REMARK SMILES IDX 1 27
REMARK H PARENT 16 19 14 21 23 23 5 25
ROOT
ATOM      1  O   UNL     1      29.911 -30.615 -16.095  1.00  0.00    -0.456 OA
ATOM      2  O   UNL     1      29.626 -27.506 -18.714  1.00  0.00    -0.289 OA
ATOM      3  C   UNL     1      30.327 -29.729 -18.318  1.00  0.00     0.111 A 
ATOM      4  C   UNL     1      30.391 -30.751 -17.373  1.00  0.00     0.146 A 
ATOM      5  C   UNL     1      29.345 -29.404 -15.728  1.00  0.00     0.138 A 
ATOM      6  C   UNL     1      30.832 -29.923 -19.606  1.00  0.00     0.176 A 
ATOM      7  C   UNL     1      29.719 -28.445 -17.935  1.00  0.00     0.197 A 
ATOM      8  C   UNL     1      29.220 -28.348 -16.548  1.00  0.00     0.100 A 
ATOM      9  C   UNL     1      30.962 -31.978 -17.712  1.00  0.00     0.098 A 
ATOM     10  C   UNL     1      31.402 -31.152 -19.942  1.00  0.00     0.203 A 
ATOM     11  C   UNL     1      31.467 -32.177 -18.997  1.00  0.00     0.165 A 
ENDROOT
BRANCH   5  12
ATOM     12  C   UNL     1      28.856 -29.368 -14.335  1.00  0.00     0.021 A 
ATOM     13  C   UNL     1      27.518 -29.067 -14.070  1.00  0.00     0.062 A 
ATOM     14  C   UNL     1      29.728 -29.634 -13.277  1.00  0.00     0.016 A 
ATOM     15  C   UNL     1      27.055 -29.032 -12.754  1.00  0.00     0.158 A 
ATOM     16  C   UNL     1      29.266 -29.599 -11.962  1.00  0.00     0.051 A 
ATOM     17  C   UNL     1      27.930 -29.299 -11.700  1.00  0.00     0.157 A 
BRANCH  15  18
ATOM     18  O   UNL     1      25.747 -28.738 -12.511  1.00  0.00    -0.504 OA
ATOM     19  H   UNL     1      25.132 -29.445 -12.191  1.00  0.00     0.293 HD
ENDBRANCH  15  18
BRANCH  17  20
ATOM     20  O   UNL     1      27.489 -29.269 -10.411  1.00  0.00    -0.504 OA
ATOM     21  H   UNL     1      26.535 -29.090 -10.218  1.00  0.00     0.293 HD
ENDBRANCH  17  20
ENDBRANCH   5  12
BRANCH   6  22
ATOM     22  O   UNL     1      30.787 -28.946 -20.555  1.00  0.00    -0.504 OA
ATOM     23  H   UNL     1      29.925 -28.708 -20.979  1.00  0.00     0.293 HD
ENDBRANCH   6  22
BRANCH  11  24
ATOM     24  O   UNL     1      32.023 -33.380 -19.317  1.00  0.00    -0.504 OA
ATOM     25  H   UNL     1      33.008 -33.482 -19.331  1.00  0.00     0.293 HD
ENDBRANCH  11  24
BRANCH  10  26
ATOM     26  O   UNL     1      31.898 -31.355 -21.196  1.00  0.00    -0.490 OA
ATOM     27  C   UNL     1      31.017 -31.938 -22.153  1.00  0.00     0.278 C 
ENDBRANCH  10  26
TORSDOF 6
ENDMDL
MODEL 2
REMARK VINA RESULT:    -8.308      6.074     11.405
REMARK INTER + INTRA:         -10.538
REMARK INTER:                 -10.257
REMARK INTRA:                  -0.280
REMARK UNBOUND:                -0.286
REMARK SMILES COc1c(O)cc2oc(-c3ccc(O)c(O)c3)cc(=O)c2c1O
REMARK SMILES IDX 8 1 20 2 21 3 7 4 9 5 22 6 19 7 18 8 6 9 3 10 4 11 10 12
REMARK SMILES IDX 17 13 11 14 15 15 12 16 13 17 16 18 14 20 23 22 5 24 2 26
REMARK SMILES IDX 1 27
REMARK H PARENT 16 19 14 21 23 23 5 25
ROOT
ATOM      1  O   UNL     1      22.347 -27.823 -12.050  1.00  0.00    -0.456 OA
ATOM      2  O   UNL     1      22.487 -23.887 -11.005  1.00  0.00    -0.289 OA
ATOM      3  C   UNL     1      21.173 -25.827 -11.314  1.00  0.00     0.111 A 
ATOM      4  C   UNL     1      21.197 -27.172 -11.681  1.00  0.00     0.146 A 
ATOM      5  C   UNL     1      23.535 -27.108 -12.064  1.00  0.00     0.138 A 
ATOM      6  C   UNL     1      19.972 -25.215 -10.948  1.00  0.00     0.176 A 
ATOM      7  C   UNL     1      22.433 -25.068 -11.319  1.00  0.00     0.197 A 
ATOM      8  C   UNL     1      23.642 -25.812 -11.725  1.00  0.00     0.100 A 
ATOM      9  C   UNL     1      20.016 -27.913 -11.684  1.00  0.00     0.098 A 
ATOM     10  C   UNL     1      18.793 -25.961 -10.951  1.00  0.00     0.203 A 
ATOM     11  C   UNL     1      18.815 -27.307 -11.319  1.00  0.00     0.165 A 
ENDROOT
BRANCH   5  12
ATOM     12  C   UNL     1      24.710 -27.905 -12.468  1.00  0.00     0.021 A 
ATOM     13  C   UNL     1      25.733 -28.160 -11.551  1.00  0.00     0.062 A 
ATOM     14  C   UNL     1      24.805 -28.406 -13.768  1.00  0.00     0.016 A 
ATOM     15  C   UNL     1      26.845 -28.913 -11.932  1.00  0.00     0.158 A 
ATOM     16  C   UNL     1      25.916 -29.159 -14.149  1.00  0.00     0.051 A 
ATOM     17  C   UNL     1      26.935 -29.412 -13.232  1.00  0.00     0.157 A 
BRANCH  15  18
ATOM     18  O   UNL     1      27.834 -29.154 -11.027  1.00  0.00    -0.504 OA
ATOM     19  H   UNL     1      27.693 -28.938 -10.072  1.00  0.00     0.293 HD
ENDBRANCH  15  18
BRANCH  17  20
ATOM     20  O   UNL     1      28.015 -30.150 -13.616  1.00  0.00    -0.504 OA
ATOM     21  H   UNL     1      27.890 -30.949 -14.187  1.00  0.00     0.293 HD
ENDBRANCH  17  20
ENDBRANCH   5  12
BRANCH   6  22
ATOM     22  O   UNL     1      19.911 -23.903 -10.584  1.00  0.00    -0.504 OA
ATOM     23  H   UNL     1      19.674 -23.214 -11.254  1.00  0.00     0.293 HD
ENDBRANCH   6  22
BRANCH  11  24
ATOM     24  O   UNL     1      17.666 -28.042 -11.325  1.00  0.00    -0.504 OA
ATOM     25  H   UNL     1      16.944 -27.836 -10.680  1.00  0.00     0.293 HD
ENDBRANCH  11  24
BRANCH  10  26
ATOM     26  O   UNL     1      17.613 -25.375 -10.595  1.00  0.00    -0.490 OA
ATOM     27  C   UNL     1      17.214 -25.503  -9.233  1.00  0.00     0.278 C 
ENDBRANCH  10  26
TORSDOF 6
ENDMDL
MODEL 3
REMARK VINA RESULT:    -8.037      9.209     12.414
REMARK INTER + INTRA:         -10.202
REMARK INTER:                  -9.883
REMARK INTRA:                  -0.320
REMARK UNBOUND:                -0.286
REMARK SMILES COc1c(O)cc2oc(-c3ccc(O)c(O)c3)cc(=O)c2c1O
REMARK SMILES IDX 8 1 20 2 21 3 7 4 9 5 22 6 19 7 18 8 6 9 3 10 4 11 10 12
REMARK SMILES IDX 17 13 11 14 15 15 12 16 13 17 16 18 14 20 23 22 5 24 2 26
REMARK SMILES IDX 1 27
REMARK H PARENT 16 19 14 21 23 23 5 25
ROOT
ATOM      1  O   UNL     1      19.836 -28.305 -13.173  1.00  0.00    -0.456 OA
ATOM      2  O   UNL     1      16.402 -27.837 -11.031  1.00  0.00    -0.289 OA
ATOM      3  C   UNL     1      17.546 -28.993 -12.747  1.00  0.00     0.111 A 
ATOM      4  C   UNL     1      18.750 -29.101 -13.439  1.00  0.00     0.146 A 
ATOM      5  C   UNL     1      19.726 -27.348 -12.176  1.00  0.00     0.138 A 
ATOM      6  C   UNL     1      16.472 -29.830 -13.060  1.00  0.00     0.176 A 
ATOM      7  C   UNL     1      17.427 -27.985 -11.681  1.00  0.00     0.197 A 
ATOM      8  C   UNL     1      18.622 -27.153 -11.435  1.00  0.00     0.100 A 
ATOM      9  C   UNL     1      18.888 -30.049 -14.453  1.00  0.00     0.098 A 
ATOM     10  C   UNL     1      16.614 -30.777 -14.074  1.00  0.00     0.203 A 
ATOM     11  C   UNL     1      17.819 -30.887 -14.769  1.00  0.00     0.165 A 
ENDROOT
BRANCH   5  12
ATOM     12  C   UNL     1      20.952 -26.554 -11.968  1.00  0.00     0.021 A 
ATOM     13  C   UNL     1      22.205 -27.167 -12.039  1.00  0.00     0.062 A 
ATOM     14  C   UNL     1      20.866 -25.186 -11.698  1.00  0.00     0.016 A 
ATOM     15  C   UNL     1      23.365 -26.417 -11.841  1.00  0.00     0.158 A 
ATOM     16  C   UNL     1      22.024 -24.436 -11.501  1.00  0.00     0.051 A 
ATOM     17  C   UNL     1      23.274 -25.051 -11.573  1.00  0.00     0.157 A 
BRANCH  15  18
ATOM     18  O   UNL     1      24.580 -27.029 -11.914  1.00  0.00    -0.504 OA
ATOM     19  H   UNL     1      24.694 -27.947 -11.561  1.00  0.00     0.293 HD
ENDBRANCH  15  18
BRANCH  17  20
ATOM     20  O   UNL     1      24.400 -24.307 -11.380  1.00  0.00    -0.504 OA
ATOM     21  H   UNL     1      24.451 -23.386 -11.739  1.00  0.00     0.293 HD
ENDBRANCH  17  20
ENDBRANCH   5  12
BRANCH   6  22
ATOM     22  O   UNL     1      15.280 -29.752 -12.404  1.00  0.00    -0.504 OA
ATOM     23  H   UNL     1      14.896 -28.868 -12.179  1.00  0.00     0.293 HD
ENDBRANCH   6  22
BRANCH  11  24
ATOM     24  O   UNL     1      17.965 -31.810 -15.762  1.00  0.00    -0.504 OA
ATOM     25  H   UNL     1      17.361 -32.594 -15.801  1.00  0.00     0.293 HD
ENDBRANCH  11  24
BRANCH  10  26
ATOM     26  O   UNL     1      15.573 -31.601 -14.390  1.00  0.00    -0.490 OA
ATOM     27  C   UNL     1      15.514 -32.855 -13.714  1.00  0.00     0.278 C 
ENDBRANCH  10  26
TORSDOF 6
ENDMDL
MODEL 4
REMARK VINA RESULT:    -6.692      8.378     13.150
REMARK INTER + INTRA:          -8.543
REMARK INTER:                  -8.240
REMARK INTRA:                  -0.303
REMARK UNBOUND:                -0.286
REMARK SMILES COc1c(O)cc2oc(-c3ccc(O)c(O)c3)cc(=O)c2c1O
REMARK SMILES IDX 8 1 20 2 21 3 7 4 9 5 22 6 19 7 18 8 6 9 3 10 4 11 10 12
REMARK SMILES IDX 17 13 11 14 15 15 12 16 13 17 16 18 14 20 23 22 5 24 2 26
REMARK SMILES IDX 1 27
REMARK H PARENT 16 19 14 21 23 23 5 25
ROOT
ATOM      1  O   UNL     1      19.869 -27.672 -12.305  1.00  0.00    -0.456 OA
ATOM      2  O   UNL     1      17.761 -25.458  -9.612  1.00  0.00    -0.289 OA
ATOM      3  C   UNL     1      17.740 -27.156 -11.256  1.00  0.00     0.111 A 
ATOM      4  C   UNL     1      18.521 -27.879 -12.157  1.00  0.00     0.146 A 
ATOM      5  C   UNL     1      20.478 -26.697 -11.530  1.00  0.00     0.138 A 
ATOM      6  C   UNL     1      16.370 -27.408 -11.146  1.00  0.00     0.176 A 
ATOM      7  C   UNL     1      18.384 -26.127 -10.425  1.00  0.00     0.197 A 
ATOM      8  C   UNL     1      19.836 -25.942 -10.624  1.00  0.00     0.100 A 
ATOM      9  C   UNL     1      17.935 -28.860 -12.955  1.00  0.00     0.098 A 
ATOM     10  C   UNL     1      15.787 -28.392 -11.947  1.00  0.00     0.203 A 
ATOM     11  C   UNL     1      16.568 -29.116 -12.849  1.00  0.00     0.165 A 
ENDROOT
BRANCH   5  12
ATOM     12  C   UNL     1      21.929 -26.563 -11.765  1.00  0.00     0.021 A 
ATOM     13  C   UNL     1      22.528 -25.301 -11.750  1.00  0.00     0.062 A 
ATOM     14  C   UNL     1      22.710 -27.697 -12.003  1.00  0.00     0.016 A 
ATOM     15  C   UNL     1      23.900 -25.174 -11.972  1.00  0.00     0.158 A 
ATOM     16  C   UNL     1      24.080 -27.570 -12.225  1.00  0.00     0.051 A 
ATOM     17  C   UNL     1      24.676 -26.309 -12.209  1.00  0.00     0.157 A 
BRANCH  15  18
ATOM     18  O   UNL     1      24.470 -23.937 -11.953  1.00  0.00    -0.504 OA
ATOM     19  H   UNL     1      24.779 -23.547 -11.097  1.00  0.00     0.293 HD
ENDBRANCH  15  18
BRANCH  17  20
ATOM     20  O   UNL     1      26.017 -26.198 -12.426  1.00  0.00    -0.504 OA
ATOM     21  H   UNL     1      26.587 -25.730 -11.766  1.00  0.00     0.293 HD
ENDBRANCH  17  20
ENDBRANCH   5  12
BRANCH   6  22
ATOM     22  O   UNL     1      15.577 -26.721 -10.278  1.00  0.00    -0.504 OA
ATOM     23  H   UNL     1      14.760 -27.146  -9.912  1.00  0.00     0.293 HD
ENDBRANCH   6  22
BRANCH  11  24
ATOM     24  O   UNL     1      16.005 -30.078 -13.634  1.00  0.00    -0.504 OA
ATOM     25  H   UNL     1      15.081 -29.963 -13.972  1.00  0.00     0.293 HD
ENDBRANCH  11  24
BRANCH  10  26
ATOM     26  O   UNL     1      14.451 -28.648 -11.849  1.00  0.00    -0.490 OA
ATOM     27  C   UNL     1      14.054 -29.672 -10.941  1.00  0.00     0.278 C 
ENDBRANCH  10  26
TORSDOF 6
ENDMDL
