MODEL 1
REMARK VINA RESULT:    -8.786      0.000      0.000
REMARK INTER + INTRA:         -14.205
REMARK INTER:                 -13.152
REMARK INTRA:                  -1.054
REMARK UNBOUND:                -1.054
REMARK SMILES COc1c(O[C@@H]2O[C@H](CO)[C@@H](O)[C@H](O)[C@H]2O)cc2oc(-c3ccc(O)c(O)c3)cc(=O)c2c1O
REMARK SMILES IDX 5 1 6 2 7 3 8 4 11 5 15 6 13 7 9 8 10 9 12 11 16 13 14 15
REMARK SMILES IDX 4 17 3 18 17 19 33 20 18 21 32 22 19 23 30 24 20 25 31 26
REMARK SMILES IDX 29 27 2 28 1 29 34 30 21 32 28 33 22 34 26 35 23 36 24 37
REMARK SMILES IDX 27 38 25 40
REMARK H PARENT 10 10 12 12 16 14 14 16 34 31 27 39 25 41
ROOT
ATOM      1  O   UNL     1      17.822 -27.436 -12.684  1.00  0.00    -0.458 OA
ENDROOT
BRANCH   1   2
ATOM      2  C   UNL     1      17.659 -28.846 -12.531  1.00  0.00     0.339 C 
ATOM      3  O   UNL     1      17.750 -29.481 -13.804  1.00  0.00    -0.332 OA
ATOM      4  C   UNL     1      17.619 -30.902 -13.717  1.00  0.00     0.179 C 
ATOM      5  C   UNL     1      16.231 -31.268 -13.188  1.00  0.00     0.177 C 
ATOM      6  C   UNL     1      16.287 -29.096 -11.904  1.00  0.00     0.214 C 
ATOM      7  C   UNL     1      15.968 -30.589 -11.842  1.00  0.00     0.180 C 
BRANCH   4   8
ATOM      8  C   UNL     1      17.858 -31.472 -15.113  1.00  0.00     0.191 C 
BRANCH   8   9
ATOM      9  O   UNL     1      18.040 -32.872 -15.002  1.00  0.00    -0.394 OA
ATOM     10  H   UNL     1      18.429 -33.221 -15.842  1.00  0.00     0.210 HD
ENDBRANCH   8   9
ENDBRANCH   4   8
BRANCH   5  11
ATOM     11  O   UNL     1      16.145 -32.681 -13.027  1.00  0.00    -0.387 OA
ATOM     12  H   UNL     1      15.393 -32.899 -12.421  1.00  0.00     0.211 HD
ENDBRANCH   5  11
BRANCH   6  13
ATOM     13  O   UNL     1      16.297 -28.558 -10.581  1.00  0.00    -0.384 OA
ATOM     14  H   UNL     1      15.365 -28.450 -10.263  1.00  0.00     0.211 HD
ENDBRANCH   6  13
BRANCH   7  15
ATOM     15  O   UNL     1      14.587 -30.768 -11.520  1.00  0.00    -0.387 OA
ATOM     16  H   UNL     1      14.076 -30.947 -12.348  1.00  0.00     0.211 HD
ENDBRANCH   7  15
ENDBRANCH   1   2
BRANCH   1  17
ATOM     17  C   UNL     1      19.023 -26.915 -12.300  1.00  0.00     0.172 A 
ATOM     18  C   UNL     1      19.079 -25.729 -11.566  1.00  0.00     0.204 A 
ATOM     19  C   UNL     1      20.200 -27.581 -12.648  1.00  0.00     0.098 A 
ATOM     20  C   UNL     1      20.311 -25.203 -11.177  1.00  0.00     0.176 A 
ATOM     21  C   UNL     1      21.433 -27.056 -12.261  1.00  0.00     0.146 A 
ATOM     22  C   UNL     1      21.487 -25.872 -11.527  1.00  0.00     0.111 A 
ATOM     23  O   UNL     1      22.554 -27.754 -12.631  1.00  0.00    -0.456 OA
ATOM     24  C   UNL     1      22.801 -25.342 -11.131  1.00  0.00     0.197 A 
ATOM     25  C   UNL     1      23.795 -27.252 -12.267  1.00  0.00     0.138 A 
ATOM     26  O   UNL     1      22.923 -24.311 -10.486  1.00  0.00    -0.289 OA
ATOM     27  C   UNL     1      23.976 -26.128 -11.557  1.00  0.00     0.100 A 
BRANCH  18  28
ATOM     28  O   UNL     1      17.924 -25.085 -11.230  1.00  0.00    -0.490 OA
ATOM     29  C   UNL     1      17.352 -25.403  -9.963  1.00  0.00     0.278 C 
ENDBRANCH  18  28
BRANCH  20  30
ATOM     30  O   UNL     1      20.326 -24.042 -10.463  1.00  0.00    -0.504 OA
ATOM     31  H   UNL     1      20.782 -23.242 -10.827  1.00  0.00     0.293 HD
ENDBRANCH  20  30
BRANCH  25  32
ATOM     32  C   UNL     1      24.931 -28.084 -12.711  1.00  0.00     0.021 A 
ATOM     33  C   UNL     1      26.021 -28.295 -11.863  1.00  0.00     0.062 A 
ATOM     34  C   UNL     1      24.921 -28.664 -13.982  1.00  0.00     0.016 A 
ATOM     35  C   UNL     1      27.094 -29.082 -12.282  1.00  0.00     0.158 A 
ATOM     36  C   UNL     1      25.994 -29.451 -14.402  1.00  0.00     0.051 A 
ATOM     37  C   UNL     1      27.081 -29.659 -13.552  1.00  0.00     0.157 A 
BRANCH  35  38
ATOM     38  O   UNL     1      28.149 -29.278 -11.443  1.00  0.00    -0.504 OA
ATOM     39  H   UNL     1      28.119 -30.005 -10.772  1.00  0.00     0.293 HD
ENDBRANCH  35  38
BRANCH  37  40
ATOM     40  O   UNL     1      28.122 -30.429 -13.973  1.00  0.00    -0.504 OA
ATOM     41  H   UNL     1      28.451 -30.351 -14.904  1.00  0.00     0.293 HD
ENDBRANCH  37  40
ENDBRANCH  25  32
ENDBRANCH   1  17
TORSDOF 12
ENDMDL
MODEL 2
REMARK VINA RESULT:    -7.231      1.827      8.176
REMARK INTER + INTRA:         -11.877
REMARK INTER:                 -10.742
REMARK INTRA:                  -1.136
REMARK UNBOUND:                -1.054
REMARK SMILES COc1c(O[C@@H]2O[C@H](CO)[C@@H](O)[C@H](O)[C@H]2O)cc2oc(-c3ccc(O)c(O)c3)cc(=O)c2c1O
REMARK SMILES IDX 5 1 6 2 7 3 8 4 11 5 15 6 13 7 9 8 10 9 12 11 16 13 14 15
REMARK SMILES IDX 4 17 3 18 17 19 33 20 18 21 32 22 19 23 30 24 20 25 31 26
REMARK SMILES IDX 29 27 2 28 1 29 34 30 21 32 28 33 22 34 26 35 23 36 24 37
REMARK SMILES IDX 27 38 25 40
REMARK H PARENT 10 10 12 12 16 14 14 16 34 31 27 39 25 41
ROOT
ATOM      1  O   UNL     1      21.135 -26.750 -10.692  1.00  0.00    -0.458 OA
ENDROOT
BRANCH   1   2
ATOM      2  C   UNL     1      22.143 -26.582 -11.689  1.00  0.00     0.339 C 
ATOM      3  O   UNL     1      23.126 -27.607 -11.556  1.00  0.00    -0.332 OA
ATOM      4  C   UNL     1      24.155 -27.511 -12.543  1.00  0.00     0.179 C 
ATOM      5  C   UNL     1      24.922 -26.198 -12.372  1.00  0.00     0.177 C 
ATOM      6  C   UNL     1      22.775 -25.205 -11.492  1.00  0.00     0.214 C 
ATOM      7  C   UNL     1      23.969 -25.002 -12.424  1.00  0.00     0.180 C 
BRANCH   4   8
ATOM      8  C   UNL     1      25.066 -28.723 -12.377  1.00  0.00     0.191 C 
BRANCH   8   9
ATOM      9  O   UNL     1      26.251 -28.308 -11.722  1.00  0.00    -0.394 OA
ATOM     10  H   UNL     1      27.007 -28.873 -12.018  1.00  0.00     0.210 HD
ENDBRANCH   8   9
ENDBRANCH   4   8
BRANCH   5  11
ATOM     11  O   UNL     1      25.887 -26.077 -13.413  1.00  0.00    -0.387 OA
ATOM     12  H   UNL     1      26.644 -25.523 -13.098  1.00  0.00     0.211 HD
ENDBRANCH   5  11
BRANCH   6  13
ATOM     13  O   UNL     1      21.784 -24.215 -11.769  1.00  0.00    -0.384 OA
ATOM     14  H   UNL     1      21.599 -23.695 -10.947  1.00  0.00     0.211 HD
ENDBRANCH   6  13
BRANCH   7  15
ATOM     15  O   UNL     1      24.696 -23.840 -12.022  1.00  0.00    -0.387 OA
ATOM     16  H   UNL     1      25.665 -24.045 -12.011  1.00  0.00     0.211 HD
ENDBRANCH   7  15
ENDBRANCH   1   2
BRANCH   1  17
ATOM     17  C   UNL     1      19.872 -27.012 -11.139  1.00  0.00     0.172 A 
ATOM     18  C   UNL     1      18.898 -26.013 -11.136  1.00  0.00     0.204 A 
ATOM     19  C   UNL     1      19.563 -28.293 -11.600  1.00  0.00     0.098 A 
ATOM     20  C   UNL     1      17.610 -26.290 -11.594  1.00  0.00     0.176 A 
ATOM     21  C   UNL     1      18.275 -28.572 -12.058  1.00  0.00     0.146 A 
ATOM     22  C   UNL     1      17.303 -27.572 -12.055  1.00  0.00     0.111 A 
ATOM     23  O   UNL     1      18.030 -29.846 -12.498  1.00  0.00    -0.456 OA
ATOM     24  C   UNL     1      15.954 -27.894 -12.545  1.00  0.00     0.197 A 
ATOM     25  C   UNL     1      16.756 -30.156 -12.952  1.00  0.00     0.138 A 
ATOM     26  O   UNL     1      15.053 -27.067 -12.573  1.00  0.00    -0.289 OA
ATOM     27  C   UNL     1      15.740 -29.280 -13.004  1.00  0.00     0.100 A 
BRANCH  18  28
ATOM     28  O   UNL     1      19.209 -24.764 -10.684  1.00  0.00    -0.490 OA
ATOM     29  C   UNL     1      18.608 -24.351  -9.459  1.00  0.00     0.278 C 
ENDBRANCH  18  28
BRANCH  20  30
ATOM     30  O   UNL     1      16.684 -25.288 -11.575  1.00  0.00    -0.504 OA
ATOM     31  H   UNL     1      16.285 -24.999 -10.716  1.00  0.00     0.293 HD
ENDBRANCH  20  30
BRANCH  25  32
ATOM     32  C   UNL     1      16.605 -31.552 -13.408  1.00  0.00     0.021 A 
ATOM     33  C   UNL     1      16.636 -31.853 -14.772  1.00  0.00     0.062 A 
ATOM     34  C   UNL     1      16.430 -32.579 -12.476  1.00  0.00     0.016 A 
ATOM     35  C   UNL     1      16.495 -33.173 -15.202  1.00  0.00     0.158 A 
ATOM     36  C   UNL     1      16.288 -33.898 -12.906  1.00  0.00     0.051 A 
ATOM     37  C   UNL     1      16.319 -34.195 -14.269  1.00  0.00     0.157 A 
BRANCH  35  38
ATOM     38  O   UNL     1      16.527 -33.450 -16.535  1.00  0.00    -0.504 OA
ATOM     39  H   UNL     1      16.663 -34.381 -16.843  1.00  0.00     0.293 HD
ENDBRANCH  35  38
BRANCH  37  40
ATOM     40  O   UNL     1      16.180 -35.487 -14.676  1.00  0.00    -0.504 OA
ATOM     41  H   UNL     1      16.980 -36.026 -14.897  1.00  0.00     0.293 HD
ENDBRANCH  37  40
ENDBRANCH  25  32
ENDBRANCH   1  17
TORSDOF 12
ENDMDL
